chemcompute.org
{'UTCtimestamp': '2022-10-04T21:22:07.463975', 'cluster': 'jetstream2', 'clusterJobNumber': '120815', 'status': 'RUNNING', 'nodeList': 'chemcompute-node-2'}
----- GAMESS execution script 'rungms' -----
This job is running on host chemcompute-node-2.novalocal
under operating system Linux at Tue Oct 4 21:22:11 UTC 2022
SLURM has assigned the following compute nodes to this run:
Available scratch disk space (Kbyte units) at beginning of the job is
Filesystem     1K-blocks     Used Available Use% Mounted on
/dev/sda1       62903276 11059844  51843432  18% /
GAMESS temporary binary files will be written to /scratch/120815
GAMESS supplementary output files will be written to /data/slurm/46/460772
Copying input file 460772.inp to your run's scratch directory...
The generated host list is
chemcompute-node-2.novalocal

 Distributed Data Interface kickoff program.
 Initiating 1 compute processes on 1 nodes to run the following command:
 /data/gamess-2019R1-avx2-ddi/gamess.00.x 460772 

          ******************************************************
          *         GAMESS VERSION = 30 JUN 2019 (R1)          *
          *             FROM IOWA STATE UNIVERSITY             *
          * M.W.SCHMIDT, K.K.BALDRIDGE, J.A.BOATZ, S.T.ELBERT, *
          *   M.S.GORDON, J.H.JENSEN, S.KOSEKI, N.MATSUNAGA,   *
          *          K.A.NGUYEN, S.J.SU, T.L.WINDUS,           *
          *       TOGETHER WITH M.DUPUIS, J.A.MONTGOMERY       *
          *         J.COMPUT.CHEM.  14, 1347-1363(1993)        *
          **************** 64 BIT INTEL VERSION ****************

  SINCE 1993, STUDENTS AND POSTDOCS WORKING AT IOWA STATE UNIVERSITY
  AND ALSO IN THEIR VARIOUS JOBS AFTER LEAVING ISU HAVE MADE IMPORTANT
  CONTRIBUTIONS TO THE CODE:
     IVANA ADAMOVIC, CHRISTINE AIKENS, YURI ALEXEEV, POOJA ARORA,
     ANDREY ASADCHEV, ROB BELL, PRADIPTA BANDYOPADHYAY, JONATHAN BENTZ,
     COLLEEN BERTONI, BRETT BODE, KURT BRORSEN, CALEB CARLIN, GALINA CHABAN,
     WEI CHEN, CHEOL HO CHOI, PAUL DAY, ALBERT DEFUSCO, NUWAN DESILVA,
     TIM DUDLEY, DMITRI FEDOROV, ALEX FINDLATER, GRAHAM FLETCHER, 
     MARK FREITAG, KURT GLAESEMANN, ANASTASIA GUNINA,
     DAN KEMP, GRANT MERRILL, NORIYUKI MINEZAWA, JONATHAN MULLIN,
     TAKESHI NAGATA, SEAN NEDD, HEATHER NETZLOFF, BOSILJKA NJEGIC, RYAN OLSON,
     MIKE PAK, BUU PHAM,
     SPENCER PRUITT, LUKE ROSKOP, JIM SHOEMAKER, LYUDMILA SLIPCHENKO,
     TONY SMITH, SAROM SOK LEANG, JIE SONG, TETSUYA TAKETSUGU, SIMON WEBB,
     PENG XU, SOOHAENG YOO, FEDERICO ZAHARIEV

  ADDITIONAL CODE HAS BEEN PROVIDED BY COLLABORATORS IN OTHER GROUPS:
     IOWA STATE UNIVERSITY:
          JOE IVANIC, AARON WEST, LAIMUTIS BYTAUTAS, KLAUS RUEDENBERG
     UNIVERSITY OF TOKYO: KIMIHIKO HIRAO, TAKAHITO NAKAJIMA,
          TAKAO TSUNEDA, MUNEAKI KAMIYA, SUSUMU YANAGISAWA,
          KIYOSHI YAGI, MAHITO CHIBA, SEIKEN TOKURA, NAOAKI KAWAKAMI
     UNIVERSITY OF AARHUS: FRANK JENSEN
     UNIVERSITY OF IOWA: VISVALDAS KAIRYS, HUI LI
     NATIONAL INST. OF STANDARDS AND TECHNOLOGY: WALT STEVENS, DAVID GARMER
     UNIVERSITY OF PISA: BENEDETTA MENNUCCI, JACOPO TOMASI
     UNIVERSITY OF MEMPHIS: HENRY KURTZ, PRAKASHAN KORAMBATH
     UNIVERSITY OF ALBERTA: TOBY ZENG, MARIUSZ KLOBUKOWSKI
     UNIVERSITY OF NEW ENGLAND: MARK SPACKMAN
     MIE UNIVERSITY: HIROAKI UMEDA
     NAT. INST. OF ADVANCED INDUSTRIAL SCIENCE AND TECHNOLOGY: KAZUO KITAURA
     MICHIGAN STATE UNIVERSITY:
          KAROL KOWALSKI, MARTA WLOCH, JEFFREY GOUR, JESSE LUTZ,
          WEI LI, JUN SHEN, J. EMILIANO DEUSTUA, PIOTR PIECUCH
     UNIVERSITY OF MINNESOTA:
          YINAN SHU
     UNIVERSITY OF SILESIA: MONIKA MUSIAL, STANISLAW KUCHARSKI
     FACULTES UNIVERSITAIRES NOTRE-DAME DE LA PAIX:
          OLIVIER QUINET, BENOIT CHAMPAGNE
     UNIVERSITY OF CALIFORNIA - SANTA BARBARA: BERNARD KIRTMAN
     INSTITUTE FOR MOLECULAR SCIENCE:
          KAZUYA ISHIMURA, MICHIO KATOUDA, AND SHIGERU NAGASE
     UNIVERSITY OF NOTRE DAME: ANNA POMOGAEVA, DAN CHIPMAN
     KYUSHU UNIVERSITY:
          HARUYUKI NAKANO,
          FENG LONG GU, JACEK KORCHOWIEC, MARCIN MAKOWSKI, AND YURIKO AOKI,
          HIROTOSHI MORI AND EISAKU MIYOSHI
     PENNSYLVANIA STATE UNIVERSITY:
          TZVETELIN IORDANOV, CHET SWALINA, JONATHAN SKONE,
          SHARON HAMMES-SCHIFFER
     WASEDA UNIVERSITY:
          MASATO KOBAYASHI, TOMOKO AKAMA, TSUGUKI TOUMA,
          TAKESHI YOSHIKAWA, YASUHIRO IKABATA, JUNJI SEINO,
          YUYA NAKAJIMA, HIROMI NAKAI
     NANJING UNIVERSITY: SHUHUA LI
     UNIVERSITY OF NEBRASKA:
          PEIFENG SU, DEJUN SI, NANDUN THELLAMUREGE, YALI WANG, HUI LI
     UNIVERSITY OF ZURICH: ROBERTO PEVERATI, KIM BALDRIDGE
     N. COPERNICUS UNIVERSITY AND JACKSON STATE UNIVERSITY:
          MARIA BARYSZ
     UNIVERSITY OF COPENHAGEN: Jimmy Kromann, CASPER STEINMANN
     TOKYO INSTITUTE OF TECHNOLOGY: HIROYA NAKATA
     NAGOYA UNIVERSITY: YOSHIO NISHIMOTO, STEPHAN IRLE
     MOSCOW STATE UNIVERSITY: VLADIMIR MIRONOV
     A.N.NESMEYANOV INSTITUTE OF ORGANOELEMENT COMPOUNDS OF RUSSIAN ACADEMY OF SCIENCES:
          IGOR S. GERASIMOV

 EXECUTION OF GAMESS BEGUN Tue Oct  4 21:22:11 2022

            ECHO OF THE FIRST FEW INPUT CARDS -
 INPUT CARD>!                                                                               
 INPUT CARD>!   GAMESS Calculation input file                                               
 INPUT CARD>!   molecula de prueba RCH                                                      
 INPUT CARD>!                                                                               
 INPUT CARD> $CONTRL SCFTYP=RHF MAXIT=200 RUNTYP=OPTIMIZE                                   
 INPUT CARD>         COORD=UNIQUE MULT=1                                                    
 INPUT CARD>         ICHARG=0                                                               
 INPUT CARD>         DFTTYP=B3LYP                                                           
 INPUT CARD>         MOLPLT=.FALSE. PLTORB=.FALSE.  $END                                    
 INPUT CARD> $SYSTEM TIMLIM=2879 MWORDS=250  $END                                           
 INPUT CARD>                                                                                
 INPUT CARD> $FORCE METHOD=SEMINUM NVIB=2 $END                                              
 INPUT CARD> $STATPT OPTTOL=0.0005 NSTEP=999 $END                                           
 INPUT CARD> $STATPT IHREP=0 HSSEND=.TRUE.  $END                                            
 INPUT CARD>                                                                                
 INPUT CARD> $DFT    METHOD=GRID  NLEB=590  $END                                            
 INPUT CARD>                                                                                
 INPUT CARD> $BASIS  GBASIS=N31 NGAUSS=6                                                    
 INPUT CARD>         NDFUNC=1   NPFUNC=0  $END                                              
 INPUT CARD>                                                                                
 INPUT CARD> $SCF    DIRSCF=.T. $END                                                        
 INPUT CARD> $GUESS  GUESS=HUCKEL  $END                                                     
 INPUT CARD>                                                                                
 INPUT CARD> $DATA                                                                          
 INPUT CARD>   molecula de prueba RCH                                                       
 INPUT CARD>  C1                                                                            
 INPUT CARD>C     6.0    -0.89328     0.07641     0.08442                                   
 INPUT CARD>C     6.0     0.17590    -0.93465    -0.12614                                   
 INPUT CARD>O     8.0    -0.68508     1.27579     0.17171                                   
 INPUT CARD>C     6.0     1.46498    -0.57664    -0.15192                                   
 INPUT CARD>H     1.0    -1.91163    -0.34419     0.15835                                   
 INPUT CARD>H     1.0    -0.13734    -1.96611    -0.25236                                   
 INPUT CARD>H     1.0     1.77104     0.46014    -0.02091                                   
 INPUT CARD>H     1.0     2.24900    -1.31279    -0.30471                                   
 INPUT CARD> $END                                                                           
 INPUT CARD>                                                                                
 INPUT CARD>                                                                                
 INPUT CARD>! Customizations after this line are persisted when using Do More Calculations  
  250000000 WORDS OF MEMORY AVAILABLE

     BASIS OPTIONS
     -------------
     GBASIS=N31          IGAUSS=       6      POLAR=POPN31  
     NDFUNC=       1     NFFUNC=       0     DIFFSP=       F
     NPFUNC=       0      DIFFS=       F     BASNAM=        


     RUN TITLE
     ---------
    molecula de prueba RCH                                                       

 THE POINT GROUP OF THE MOLECULE IS C1      
 THE ORDER OF THE PRINCIPAL AXIS IS     0

 ATOM      ATOMIC                      COORDINATES (BOHR)
           CHARGE         X                   Y                   Z
 C           6.0    -1.6880544303        0.1443939627        0.1595306679
 C           6.0     0.3324028012       -1.7662323944       -0.2383700361
 O           8.0    -1.2946134797        2.4108935179        0.3244848494
 C           6.0     2.7684107775       -1.0896915936       -0.2870871721
 H           1.0    -3.6124568899       -0.6504247877        0.2992381102
 H           1.0    -0.2595349672       -3.7154091617       -0.4768912503
 H           1.0     3.3467803133        0.8695385160       -0.0395141704
 H           1.0     4.2499937464       -2.4808133794       -0.5758184057

          INTERNUCLEAR DISTANCES (ANGS.)
          ------------------------------

                1 C          2 C          3 O          4 C          5 H     

   1 C       0.0000000    1.4865139 *  1.2204422 *  2.4583981 *  1.1042675 *
   2 C       1.4865139 *  0.0000000    2.3908254 *  1.3381192 *  2.1880034 *
   3 O       1.2204422 *  2.3908254 *  0.0000000    2.8563948 *  2.0319790 *
   4 C       2.4583981 *  1.3381192 *  2.8563948 *  0.0000000    3.3987933  
   5 H       1.1042675 *  2.1880034 *  2.0319790 *  3.3987933    0.0000000  
   6 H       2.2038044 *  1.0853389 *  3.3150822    2.1232391 *  2.4387317 *
   7 H       2.6938716 *  2.1215523 *  2.5951711 *  1.0889211 *  3.7737434  
   8 H       3.4576325    2.1148571 *  3.9416428    1.0862546 *  4.2969120  

                6 H          7 H          8 H     

   1 C       2.2038044 *  2.6938716 *  3.4576325  
   2 C       1.0853389 *  2.1215523 *  2.1148571 *
   3 O       3.3150822    2.5951711 *  3.9416428  
   4 C       2.1232391 *  1.0889211 *  1.0862546 *
   5 H       2.4387317 *  3.7737434    4.2969120  
   6 H       0.0000000    3.0955084    2.4747093 *
   7 H       3.0955084    0.0000000    1.8580283 *
   8 H       2.4747093 *  1.8580283 *  0.0000000  

  * ... LESS THAN  3.000


     ATOMIC BASIS SET
     ----------------
 THE CONTRACTED PRIMITIVE FUNCTIONS HAVE BEEN UNNORMALIZED
 THE CONTRACTED BASIS FUNCTIONS ARE NOW NORMALIZED TO UNITY

  SHELL TYPE  PRIMITIVE        EXPONENT          CONTRACTION COEFFICIENT(S)

 C         

      1   S       1          3047.5248800    0.001834737132
      1   S       2           457.3695180    0.014037322813
      1   S       3           103.9486850    0.068842622264
      1   S       4            29.2101553    0.232184443216
      1   S       5             9.2866630    0.467941348435
      1   S       6             3.1639270    0.362311985337

      2   L       7             7.8682723   -0.119332419775    0.068999066591
      2   L       8             1.8812885   -0.160854151696    0.316423960957
      2   L       9             0.5442493    1.143456437840    0.744308290898

      3   L      10             0.1687145    1.000000000000    1.000000000000

      4   D      11             0.8000000    1.000000000000

 C         

      5   S      12          3047.5248800    0.001834737132
      5   S      13           457.3695180    0.014037322813
      5   S      14           103.9486850    0.068842622264
      5   S      15            29.2101553    0.232184443216
      5   S      16             9.2866630    0.467941348435
      5   S      17             3.1639270    0.362311985337

      6   L      18             7.8682723   -0.119332419775    0.068999066591
      6   L      19             1.8812885   -0.160854151696    0.316423960957
      6   L      20             0.5442493    1.143456437840    0.744308290898

      7   L      21             0.1687145    1.000000000000    1.000000000000

      8   D      22             0.8000000    1.000000000000

 O         

      9   S      23          5484.6716600    0.001831074430
      9   S      24           825.2349460    0.013950172200
      9   S      25           188.0469580    0.068445078098
      9   S      26            52.9645000    0.232714335992
      9   S      27            16.8975704    0.470192897984
      9   S      28             5.7996353    0.358520852987

     10   L      29            15.5396162   -0.110777549525    0.070874268231
     10   L      30             3.5999336   -0.148026262701    0.339752839147
     10   L      31             1.0137618    1.130767015354    0.727158577316

     11   L      32             0.2700058    1.000000000000    1.000000000000

     12   D      33             0.8000000    1.000000000000

 C         

     13   S      34          3047.5248800    0.001834737132
     13   S      35           457.3695180    0.014037322813
     13   S      36           103.9486850    0.068842622264
     13   S      37            29.2101553    0.232184443216
     13   S      38             9.2866630    0.467941348435
     13   S      39             3.1639270    0.362311985337

     14   L      40             7.8682723   -0.119332419775    0.068999066591
     14   L      41             1.8812885   -0.160854151696    0.316423960957
     14   L      42             0.5442493    1.143456437840    0.744308290898

     15   L      43             0.1687145    1.000000000000    1.000000000000

     16   D      44             0.8000000    1.000000000000

 H         

     17   S      45            18.7311370    0.033494604338
     17   S      46             2.8253944    0.234726953484
     17   S      47             0.6401217    0.813757326146

     18   S      48             0.1612778    1.000000000000

 H         

     19   S      49            18.7311370    0.033494604338
     19   S      50             2.8253944    0.234726953484
     19   S      51             0.6401217    0.813757326146

     20   S      52             0.1612778    1.000000000000

 H         

     21   S      53            18.7311370    0.033494604338
     21   S      54             2.8253944    0.234726953484
     21   S      55             0.6401217    0.813757326146

     22   S      56             0.1612778    1.000000000000

 H         

     23   S      57            18.7311370    0.033494604338
     23   S      58             2.8253944    0.234726953484
     23   S      59             0.6401217    0.813757326146

     24   S      60             0.1612778    1.000000000000

 TOTAL NUMBER OF BASIS SET SHELLS             =   24
 NUMBER OF CARTESIAN GAUSSIAN BASIS FUNCTIONS =   68
 NUMBER OF ELECTRONS                          =   30
 CHARGE OF MOLECULE                           =    0
 SPIN MULTIPLICITY                            =    1
 NUMBER OF OCCUPIED ORBITALS (ALPHA)          =   15
 NUMBER OF OCCUPIED ORBITALS (BETA )          =   15
 TOTAL NUMBER OF ATOMS                        =    8
 THE NUCLEAR REPULSION ENERGY IS      104.4017410900

 SELECTED MURRAY-HANDY-LAMING RADIAL GRID

 LEGACY BECKE'S FUZZY CELL METHOD

 SELECTED ORIGINAL BECKE'S PARTITION FUNCTION

     LEBEDEV GRID-BASED DFT OPTIONS
     ------------------------------
     DFTTYP=B3LYP   
     NRAD  =      96     NLEB  =     590
     NRAD0 =      24     NLEB0 =     110
     SWOFF =    5.00E-03 (PURE SCF -> DFT)
     SWITCH=    3.00E-04 (COARSE -> TIGHT GRID)
     THRESH=    0.00E+00 GTHRE=    1.00E+00

 GRIMME'S EMPIRICAL DISPERSION CORRECTION= F

     $CONTRL OPTIONS
     ---------------
 SCFTYP=RHF          RUNTYP=OPTIMIZE     EXETYP=RUN     
 MPLEVL=       0     CITYP =NONE         CCTYP =NONE         VBTYP =NONE    
 DFTTYP=B3LYP        TDDFT =NONE    
 MULT  =       1     ICHARG=       0     NZVAR =       0     COORD =UNIQUE  
 PP    =NONE         RELWFN=NONE         LOCAL =NONE         NUMGRD=       F
 ISPHER=      -1     NOSYM =       0     MAXIT =     200     UNITS =ANGS    
 PLTORB=       F     MOLPLT=       F     AIMPAC=       F     FRIEND=        
 NPRINT=       7     IREST =       0     GEOM  =INPUT   
 NORMF =       0     NORMP =       0     ITOL  =      20     ICUT  =       9
 INTTYP=BEST         GRDTYP=BEST         QMTTOL= 1.0E-06

     $SYSTEM OPTIONS
     ---------------
  REPLICATED MEMORY=   250000000 WORDS (ON EVERY NODE).
 DISTRIBUTED MEMDDI=           0 MILLION WORDS IN AGGREGATE,
 MEMDDI DISTRIBUTED OVER   1 PROCESSORS IS           0 WORDS/PROCESSOR.
 TOTAL MEMORY REQUESTED ON EACH PROCESSOR=   250000000 WORDS.
 TIMLIM=        2879.00 MINUTES, OR       2.0 DAYS.
 PARALL= F  BALTYP=  DLB     KDIAG=    0  COREFL= F
 MXSEQ2=     300 MXSEQ3=     150  mem10=         0

          ----------------
          PROPERTIES INPUT
          ----------------

     MOMENTS            FIELD           POTENTIAL          DENSITY
 IEMOM =       1   IEFLD =       0   IEPOT =       0   IEDEN =       0
 WHERE =COMASS     WHERE =NUCLEI     WHERE =NUCLEI     WHERE =NUCLEI  
 OUTPUT=BOTH       OUTPUT=BOTH       OUTPUT=BOTH       OUTPUT=BOTH    
 IEMINT=       0   IEFINT=       0                     IEDINT=       0
                                                       MORB  =       0
          EXTRAPOLATION IN EFFECT
          DIIS IN EFFECT
 ORBITAL PRINTING OPTION: NPREO=     1    68     2     1

     -------------------------------
     INTEGRAL TRANSFORMATION OPTIONS
     -------------------------------
     NWORD  =            0
     CUTOFF = 1.0E-09     MPTRAN =       0
     DIRTRF =       T     AOINTS =DUP     

          ----------------------
          INTEGRAL INPUT OPTIONS
          ----------------------
 NOPK  =       1 NORDER=       0 SCHWRZ=       T

     ------------------------------------------
     THE POINT GROUP IS C1 , NAXIS= 0, ORDER= 1
     ------------------------------------------

     DIMENSIONS OF THE SYMMETRY SUBSPACES ARE
 A   =   68

 ..... DONE SETTING UP THE RUN .....
 STEP CPU TIME =     0.01 TOTAL CPU TIME =          0.0 (      0.0 MIN)
 TOTAL WALL CLOCK TIME=          0.0 SECONDS, CPU UTILIZATION IS    50.00%


          -----------------------------
          STATIONARY POINT LOCATION RUN
          -----------------------------

 OBTAINING INITIAL HESSIAN, HESS=GUESS   
 CARTESIAN COORDINATE OPTIMIZATION USING BADGER'S RULE FORCE CONSTANT GUESS

          PARAMETERS CONTROLLING GEOMETRY SEARCH ARE
          METHOD =QA                  UPHESS =BFGS    
          NNEG   =         0          NFRZ   =         0
          NSTEP  =       999          IFOLOW =         1
          HESS   =GUESS               RESTAR =         F
          IHREP  =         0          HSSEND =         T
          NPRT   =         0          NPUN   =         0
          OPTTOL = 5.000E-04          RMIN   = 1.500E-03
          RMAX   = 1.000E-01          RLIM   = 7.000E-02
          DXMAX  = 3.000E-01          PURIFY =         F
          MOVIE  =         F          TRUPD  =         T
          TRMAX  = 5.000E-01          TRMIN  = 5.000E-02
          ITBMAT =         5          STPT   =         F
          STSTEP = 1.000E-02          PROJCT=          T

 BEGINNING GEOMETRY SEARCH POINT NSERCH=   0 ...

 COORDINATES OF ALL ATOMS ARE (ANGS)
   ATOM   CHARGE       X              Y              Z
 ------------------------------------------------------------
 C           6.0  -0.8932800000   0.0764100000   0.0844200000
 C           6.0   0.1759000000  -0.9346500000  -0.1261400000
 O           8.0  -0.6850800000   1.2757900000   0.1717100000
 C           6.0   1.4649800000  -0.5766400000  -0.1519200000
 H           1.0  -1.9116300000  -0.3441900000   0.1583500000
 H           1.0  -0.1373400000  -1.9661100000  -0.2523600000
 H           1.0   1.7710400000   0.4601400000  -0.0209100000
 H           1.0   2.2490000000  -1.3127900000  -0.3047100000

          ********************
          1 ELECTRON INTEGRALS
          ********************
 ...... END OF ONE-ELECTRON INTEGRALS ......
 STEP CPU TIME =     0.00 TOTAL CPU TIME =          0.0 (      0.0 MIN)
 TOTAL WALL CLOCK TIME=          0.0 SECONDS, CPU UTILIZATION IS    25.00%

          -------------
          GUESS OPTIONS
          -------------
          GUESS =HUCKEL            NORB  =       0          NORDER=       0
          MIX   =       F          PRTMO =       F          PUNMO =       F
          TOLZ  = 1.0E-08          TOLE  = 1.0E-05
          SYMDEN=       F          PURIFY=       F

 INITIAL GUESS ORBITALS GENERATED BY HUCKEL   ROUTINE.
 HUCKEL GUESS REQUIRES     42032 WORDS.

 SYMMETRIES FOR INITIAL GUESS ORBITALS FOLLOW.   BOTH SET(S).
    15 ORBITALS ARE OCCUPIED (    4 CORE ORBITALS).
     5=A        6=A        7=A        8=A        9=A       10=A       11=A   
    12=A       13=A       14=A       15=A       16=A       17=A       18=A   
    19=A       20=A       21=A       22=A       23=A       24=A       25=A   
 ...... END OF INITIAL ORBITAL SELECTION ......
 STEP CPU TIME =     0.01 TOTAL CPU TIME =          0.0 (      0.0 MIN)
 TOTAL WALL CLOCK TIME=          0.1 SECONDS, CPU UTILIZATION IS    33.33%

                    ----------------------
                    AO INTEGRAL TECHNOLOGY
                    ----------------------
     S,P,L SHELL ROTATED AXIS INTEGRALS, REPROGRAMMED BY
        KAZUYA ISHIMURA (IMS) AND JOSE SIERRA (SYNSTAR).
     S,P,D,L SHELL ROTATED AXIS INTEGRALS PROGRAMMED BY
        KAZUYA ISHIMURA (INSTITUTE FOR MOLECULAR SCIENCE).
     S,P,D,F,G SHELL TO TOTAL QUARTET ANGULAR MOMENTUM SUM 5,
        ERIC PROGRAM BY GRAHAM FLETCHER (ELORET AND NASA ADVANCED
        SUPERCOMPUTING DIVISION, AMES RESEARCH CENTER).
     S,P,D,F,G,L SHELL GENERAL RYS QUADRATURE PROGRAMMED BY
        MICHEL DUPUIS (PACIFIC NORTHWEST NATIONAL LABORATORY).

          --------------------
          2 ELECTRON INTEGRALS
          --------------------

 DIRECT SCF METHOD SKIPS INTEGRAL STORAGE ON DISK.
 DIRECT TRANSFORMATION SKIPS AO INTEGRAL STORAGE ON DISK.
  ...... END OF TWO-ELECTRON INTEGRALS .....
 STEP CPU TIME =     0.01 TOTAL CPU TIME =          0.0 (      0.0 MIN)
 TOTAL WALL CLOCK TIME=          0.1 SECONDS, CPU UTILIZATION IS    42.86%

          --------------------------
             R-B3LYP SCF CALCULATION
          --------------------------

     NUCLEAR ENERGY =       104.4017410900
     MAXIT =  200     NPUNCH=    2
     EXTRAP=T  DAMP=F  SHIFT=F  RSTRCT=F  DIIS=T  DEM=F  SOSCF=F
         DENSITY MATRIX CONVERGENCE THRESHOLD=  2.00E-05
     COARSE -> FINE DFT GRID SWITCH THRESHOLD=  3.00E-04 (SWITCH IN $DFT)
                   HF -> DFT SWITCH THRESHOLD=  5.00E-03 (SWOFF IN $DFT)
     MEMORY REQUIRED FOR RHF ITERS=    620217 WORDS.

 DIRECT SCF CALCULATION, SCHWRZ=T   FDIFF=T,  DIRTHR=  0.00E+00 NITDIR=10
 SCHWARZ INEQUALITY OVERHEAD:      2344 INTEGRALS, T=        0.00

 DFT CODE IS SWITCHING FROM THE FINE GRID NRAD= 96,  NLEB=  590
                      TO THE COARSE GRID NRAD0= 24, NLEB0=  110

     EXCHANGE FUNCTIONAL   =B88&HFX   
     CORRELATION FUNCTIONAL=LYP88&VWN5
     DFT THRESHOLD         =.883E-08
     GRID CHANGE THRESHOLD =.300E-03
 FOR AN EULER-MACLAURIN QUADRATURE USING  96 RADIAL POINTS:
 SMALLEST GAUSSIAN PRIMITIVE EXPONENT=        0.1612777588 OF TYPE -S-
 ON ATOM NUMBER   5 HAS RADIAL NORMALIZATION=  1.000000
  LARGEST GAUSSIAN PRIMITIVE EXPONENT=     5484.6716600000 OF TYPE -S-
 ON ATOM NUMBER   3 HAS RADIAL NORMALIZATION=  1.000000
 DFT IS SWITCHED OFF, PERFORMING PURE SCF UNTIL SWOFF THRESHOLD IS REACHED.

                                                                                   NONZERO     BLOCKS
 ITER EX DEM     TOTAL ENERGY        E CHANGE  DENSITY CHANGE    DIIS ERROR      INTEGRALS    SKIPPED
          * * *   INITIATING DIIS PROCEDURE   * * *
   1  0  0     -190.2086654822  -190.2086654822   0.282518611   0.411264247        2655722       3473
   2  1  0     -190.6964893201    -0.4878238380   0.141740822   0.122604796        2655094       3774
   3  2  0     -190.7346724245    -0.0381831043   0.068518431   0.073627510        2649910       4253
   4  3  0     -190.7564304711    -0.0217580466   0.011161080   0.008464747        2642204       4673
   5  4  0     -190.7570647854    -0.0006343143   0.006642370   0.002994267        2625482       5367
   6  5  0     -190.7571804039    -0.0001156185   0.002907704   0.001188091        2612469       5860
 CONVERGED TO SWOFF, SO DFT CALCULATION IS NOW SWITCHED ON.
          * * *   INITIATING DIIS PROCEDURE   * * *
   7  6  0     -191.7783660269    -1.0211856230   0.123790059   0.092816817        2655646       3465
   8  7  0     -191.7959741070    -0.0176080801   0.072931331   0.036531871        2651143       4132
   9  8  0     -191.7909690324     0.0050050746   0.056979229   0.055597822        2643566       4559
  10  9  0     -191.8003001537    -0.0093311213   0.009133507   0.007612941        2637439       4861
  11 10  0     -191.8006153975    -0.0003152439   0.000981782   0.001003757        2615000       5652
  12 11  0     -191.8006183052    -0.0000029077   0.000611172   0.000377189        2580622       7033
  13 12  0     -191.8006189066    -0.0000006014   0.000165635   0.000140624        2544565       8238
 DFT CODE IS SWITCHING BACK TO THE FINE GRID
          * * *   INITIATING DIIS PROCEDURE   * * *
  14 13  0     -191.7983053828     0.0023135238   0.003535687   0.001757469        2655821       3423
  15 14  0     -191.7983148770    -0.0000094943   0.000397320   0.000207521        2604599       6355
  16 15  0     -191.7983149194    -0.0000000424   0.000216179   0.000225072        2550033       8148
  17 16  0     -191.7983150560    -0.0000001365   0.000103729   0.000097079        2522340       8932
  18 17  0     -191.7983150963    -0.0000000403   0.000036266   0.000025881        2484540       9995
  19 18  0     -191.7983150994    -0.0000000031   0.000013305   0.000009031        2427208      11412
  20 19  0     -191.7983150996    -0.0000000003   0.000004039   0.000004319        2367762      13022

          -----------------
          DENSITY CONVERGED
          -----------------
     TIME TO FORM FOCK OPERATORS=       9.5 SECONDS (       0.5 SEC/ITER)
     FOCK TIME ON FIRST ITERATION=       0.1, LAST ITERATION=       1.1
     TIME TO SOLVE SCF EQUATIONS=       0.1 SECONDS (       0.0 SEC/ITER)

 FINAL R-B3LYP ENERGY IS     -191.7983150996 AFTER  20 ITERATIONS
 DFT EXCHANGE + CORRELATION ENERGY =       -21.1473728881
 TOTAL ELECTRON NUMBER             =        30.0000022421

          ------------
          EIGENVECTORS
          ------------

                      1          2          3          4          5
                  -19.1440   -10.2738   -10.2102   -10.2029    -1.0358
                     A          A          A          A          A   
    1  C  1  S    0.000007   0.992828  -0.000139  -0.002126  -0.117951
    2  C  1  S    0.000515   0.048720  -0.000193  -0.000345   0.229084
    3  C  1  X    0.000036   0.000212  -0.000082  -0.000195   0.035999
    4  C  1  Y   -0.000020   0.000783  -0.000013   0.000184   0.175756
    5  C  1  Z   -0.000006   0.000048   0.000007   0.000040   0.012264
    6  C  1  S   -0.002970  -0.008992   0.000609   0.005180   0.082784
    7  C  1  X   -0.001188   0.000302   0.000666   0.002377  -0.019045
    8  C  1  Y   -0.003238   0.003652  -0.000075  -0.000400  -0.031620
    9  C  1  Z   -0.000185   0.000327  -0.000076  -0.000262  -0.001047
   10  C  1 XX   -0.000091  -0.009405   0.000051  -0.000263  -0.016101
   11  C  1 YY   -0.000827  -0.008446  -0.000009  -0.000364   0.022000
   12  C  1 ZZ   -0.000032  -0.009690  -0.000072  -0.000148  -0.019317
   13  C  1 XY   -0.000173   0.000177  -0.000023   0.000216   0.009198
   14  C  1 XZ   -0.000010  -0.000018  -0.000011   0.000035   0.000421
   15  C  1 YZ   -0.000064   0.000112   0.000012  -0.000056   0.003420
   16  C  2  S   -0.000022   0.001882   0.057071   0.991117  -0.020353
   17  C  2  S   -0.000084   0.000021   0.002387   0.049637   0.036132
   18  C  2  X   -0.000081   0.000263  -0.000402   0.000094  -0.013709
   19  C  2  Y   -0.000023  -0.000185  -0.000121   0.000175   0.024905
   20  C  2  Z    0.000005  -0.000043   0.000007   0.000029   0.003994
   21  C  2  S    0.001213   0.002306   0.003222  -0.016016   0.025098
   22  C  2  X    0.001722  -0.003029   0.001927  -0.001026   0.018889
   23  C  2  Y    0.001039  -0.000079   0.000027  -0.002568   0.017493
   24  C  2  Z   -0.000007   0.000208  -0.000105  -0.000300   0.000536
   25  C  2 XX    0.000087  -0.000464  -0.000861  -0.009087   0.002042
   26  C  2 YY   -0.000097  -0.000318  -0.000778  -0.009394   0.004282
   27  C  2 ZZ   -0.000050  -0.000132  -0.000673  -0.009601  -0.002379
   28  C  2 XY    0.000009   0.000175  -0.000001   0.000103  -0.004617
   29  C  2 XZ   -0.000007   0.000048   0.000012  -0.000024  -0.000868
   30  C  2 YZ   -0.000007  -0.000037  -0.000017   0.000030   0.001300
   31  O  3  S    0.992752  -0.000126   0.000001   0.000050  -0.194728
   32  O  3  S    0.025655   0.000423   0.000004   0.000191   0.425607
   33  O  3  X   -0.000190  -0.000002  -0.000001   0.000006  -0.025434
   34  O  3  Y   -0.001137   0.000050   0.000013  -0.000042  -0.159153
   35  O  3  Z   -0.000083   0.000007   0.000002   0.000002  -0.011720
   36  O  3  S    0.014000  -0.003080  -0.000165  -0.001605   0.397820
   37  O  3  X   -0.000159   0.000439  -0.000112  -0.000230  -0.005618
   38  O  3  Y   -0.001626   0.001940   0.000020   0.000466  -0.054774
   39  O  3  Z   -0.000124   0.000119   0.000009   0.000046  -0.004201
   40  O  3 XX   -0.008120   0.000263   0.000006   0.000209  -0.009949
   41  O  3 YY   -0.007617  -0.000287   0.000013   0.000178   0.009861
   42  O  3 ZZ   -0.008147   0.000427  -0.000026   0.000066  -0.005960
   43  O  3 XY    0.000079  -0.000139   0.000011   0.000040   0.003444
   44  O  3 XZ    0.000004   0.000008  -0.000003  -0.000017   0.000877
   45  O  3 YZ    0.000047  -0.000059   0.000004   0.000010   0.001259
   46  C  4  S    0.000005  -0.000034   0.991045  -0.057543  -0.007670
   47  C  4  S    0.000034  -0.000206   0.049164  -0.003392   0.014291
   48  C  4  X    0.000048  -0.000035  -0.000076   0.000345  -0.009124
   49  C  4  Y    0.000042  -0.000073  -0.000072   0.000101   0.002441
   50  C  4  Z   -0.000002  -0.000011   0.000001  -0.000006   0.000797
   51  C  4  S   -0.001605   0.001934  -0.012612   0.006540  -0.012253
   52  C  4  X    0.000954  -0.001146   0.000835  -0.002436   0.005339
   53  C  4  Y    0.000205  -0.000078   0.000378   0.000057   0.002445
   54  C  4  Z   -0.000004   0.000054  -0.000000   0.000149   0.000207
   55  C  4 XX   -0.000061   0.000131  -0.009218   0.000227   0.000952
   56  C  4 YY    0.000014   0.000010  -0.009466   0.000314   0.000054
   57  C  4 ZZ    0.000022  -0.000089  -0.009775   0.000455  -0.000923
   58  C  4 XY   -0.000056   0.000054   0.000077  -0.000081  -0.000712
   59  C  4 XZ   -0.000006  -0.000006  -0.000028   0.000005  -0.000223
   60  C  4 YZ    0.000001   0.000015   0.000048  -0.000019   0.000178
   61  H  5  S   -0.000062  -0.000231   0.000016  -0.000043   0.027879
   62  H  5  S   -0.000642   0.002526   0.000352   0.000344  -0.016826
   63  H  6  S    0.000137  -0.000227  -0.000102  -0.000411   0.006244
   64  H  6  S    0.000397  -0.000555  -0.000022   0.001462   0.006541
   65  H  7  S    0.000118  -0.000108  -0.000330  -0.000124   0.004768
   66  H  7  S   -0.000274   0.000062   0.002069  -0.000523   0.003095
   67  H  8  S    0.000014  -0.000024  -0.000337  -0.000027   0.001761
   68  H  8  S   -0.000122   0.000305   0.002190   0.000017   0.000879

                      6          7          8          9         10
                   -0.7892    -0.6560    -0.5435    -0.5056    -0.4431
                     A          A          A          A          A   
    1  C  1  S   -0.046577  -0.119839  -0.091362  -0.013281   0.031595
    2  C  1  S    0.093043   0.252391   0.197563   0.033310  -0.079824
    3  C  1  X    0.058729  -0.022633  -0.185909   0.281035   0.041677
    4  C  1  Y   -0.119987  -0.182035  -0.035684  -0.018579  -0.264922
    5  C  1  Z   -0.016770  -0.015729   0.019562  -0.027533  -0.034214
    6  C  1  S    0.076850   0.205846   0.196507   0.021727  -0.075142
    7  C  1  X    0.019577  -0.022580  -0.065551   0.089825   0.008512
    8  C  1  Y   -0.013867  -0.068811  -0.040357   0.000204  -0.060833
    9  C  1  Z   -0.002851  -0.004463   0.004271  -0.007277  -0.009299
   10  C  1 XX    0.009595   0.006393   0.005949   0.001317   0.004070
   11  C  1 YY   -0.005271  -0.009132  -0.012743  -0.007322   0.001446
   12  C  1 ZZ   -0.003557  -0.008644  -0.006884  -0.000706   0.005824
   13  C  1 XY   -0.008703  -0.002802   0.008451  -0.002641  -0.001867
   14  C  1 XZ   -0.002339  -0.002352  -0.000699  -0.000130  -0.000232
   15  C  1 YZ    0.000771   0.000367  -0.001604  -0.000457  -0.000139
   16  C  2  S   -0.164020  -0.053321   0.096501   0.002769   0.004883
   17  C  2  S    0.321139   0.107655  -0.198553  -0.001696  -0.012495
   18  C  2  X    0.065002  -0.220848  -0.035606  -0.021206  -0.273514
   19  C  2  Y    0.036721   0.016393   0.122369   0.301856  -0.052571
   20  C  2  Z    0.002088   0.017007   0.022092   0.042436   0.009611
   21  C  2  S    0.217274   0.092431  -0.188396  -0.010032   0.010654
   22  C  2  X   -0.007530  -0.051303   0.019517  -0.003071  -0.114230
   23  C  2  Y   -0.017723   0.002405   0.054322   0.094180  -0.007181
   24  C  2  Z   -0.001518   0.003616   0.007210   0.012633   0.006247
   25  C  2 XX    0.005238  -0.003353   0.011722  -0.003188  -0.003563
   26  C  2 YY   -0.001174   0.006188  -0.006801  -0.002796   0.008096
   27  C  2 ZZ   -0.015502  -0.004442   0.007292   0.000773   0.000010
   28  C  2 XY    0.003854  -0.009341  -0.006801  -0.003847   0.000785
   29  C  2 XZ   -0.000941  -0.001585  -0.001476  -0.000146   0.000225
   30  C  2 YZ    0.002285   0.002492  -0.001667  -0.000329   0.001274
   31  O  3  S    0.044009   0.057703   0.055012   0.022216  -0.070039
   32  O  3  S   -0.098884  -0.134400  -0.124752  -0.049966   0.137018
   33  O  3  X    0.021160  -0.013904  -0.087820   0.158905   0.130158
   34  O  3  Y    0.002383  -0.047448  -0.103328  -0.081911   0.353955
   35  O  3  Z   -0.001816  -0.003653   0.001774  -0.021206   0.014913
   36  O  3  S   -0.111739  -0.142652  -0.175978  -0.083900   0.333340
   37  O  3  X    0.007256  -0.008874  -0.041638   0.087031   0.071509
   38  O  3  Y   -0.001267  -0.034581  -0.055243  -0.042687   0.169564
   39  O  3  Z   -0.000811  -0.002626   0.000467  -0.011412   0.006078
   40  O  3 XX    0.001201  -0.000586   0.002748  -0.002701  -0.005860
   41  O  3 YY    0.002441   0.007566   0.009575   0.009004  -0.026911
   42  O  3 ZZ    0.000123  -0.001439  -0.001177  -0.000998  -0.002623
   43  O  3 XY   -0.002031   0.002197   0.008702  -0.012441  -0.009115
   44  O  3 XZ   -0.000313   0.000043   0.000302  -0.000923  -0.000306
   45  O  3 YZ    0.000452   0.000798   0.000019   0.002131  -0.001285
   46  C  4  S   -0.143118   0.126257  -0.067271   0.006171   0.005312
   47  C  4  S    0.277640  -0.252085   0.138472  -0.014262  -0.014440
   48  C  4  X   -0.098431  -0.047024   0.201866  -0.113950   0.232237
   49  C  4  Y   -0.026291   0.006799   0.102253   0.227478   0.175911
   50  C  4  Z    0.002383   0.004016   0.003641   0.038776   0.011516
   51  C  4  S    0.221465  -0.224119   0.142342  -0.014819   0.017936
   52  C  4  X   -0.009469  -0.026005   0.084358  -0.040170   0.061230
   53  C  4  Y    0.000174   0.000051   0.035715   0.093430   0.058087
   54  C  4  Z    0.000730   0.001626   0.000941   0.015651   0.004292
   55  C  4 XX    0.008022   0.002709  -0.006619   0.000429  -0.004932
   56  C  4 YY   -0.000329  -0.006656   0.010816  -0.001197   0.013437
   57  C  4 ZZ   -0.014465   0.011390  -0.005110   0.000104   0.000080
   58  C  4 XY    0.002632   0.002261  -0.007819   0.002689  -0.000407
   59  C  4 XZ   -0.001251   0.000909  -0.001150   0.000430   0.000319
   60  C  4 YZ    0.002273  -0.003212   0.003246  -0.000343   0.002261
   61  H  5  S    0.026784   0.124797   0.171097  -0.114045   0.000150
   62  H  5  S    0.009312   0.039525   0.088476  -0.081450   0.012024
   63  H  6  S    0.084434   0.060626  -0.142971  -0.155647   0.074850
   64  H  6  S    0.006336   0.023915  -0.068356  -0.111741   0.066253
   65  H  7  S    0.070459  -0.098694   0.134989   0.091439   0.138427
   66  H  7  S    0.005834  -0.034052   0.059844   0.049980   0.127404
   67  H  8  S    0.072063  -0.112434   0.102934  -0.133437   0.025737
   68  H  8  S    0.011607  -0.039062   0.050388  -0.083798   0.027196

                     11         12         13         14         15
                   -0.4210    -0.3913    -0.3828    -0.2825    -0.2539
                     A          A          A          A          A   
    1  C  1  S   -0.026661  -0.001730   0.018109   0.000211  -0.000326
    2  C  1  S    0.070034   0.004065  -0.033636  -0.000253  -0.013070
    3  C  1  X    0.262064   0.059892  -0.077816   0.002600  -0.136311
    4  C  1  Y    0.117920  -0.035490   0.214915   0.005665   0.026251
    5  C  1  Z   -0.044264   0.354136   0.040347  -0.041190   0.017110
    6  C  1  S    0.034115   0.005936  -0.097964  -0.002052   0.044934
    7  C  1  X    0.066438   0.030288  -0.048788  -0.003291   0.058565
    8  C  1  Y   -0.039875  -0.025083   0.054180   0.001338  -0.059535
    9  C  1  Z   -0.025954   0.202095   0.017323  -0.034587  -0.012803
   10  C  1 XX   -0.019462   0.000238  -0.011821  -0.000329   0.018327
   11  C  1 YY    0.005933  -0.002423   0.011025   0.005000  -0.013839
   12  C  1 ZZ   -0.003537   0.001310  -0.001848  -0.005109  -0.002449
   13  C  1 XY    0.001292   0.001361  -0.000536  -0.004262   0.045574
   14  C  1 XZ    0.001091   0.008399   0.001426   0.007294   0.001906
   15  C  1 YZ    0.000168   0.018638   0.002663  -0.023060  -0.006911
   16  C  2  S    0.013291   0.001014  -0.008843  -0.000765   0.038589
   17  C  2  S   -0.031837  -0.001679   0.010606   0.000577  -0.075387
   18  C  2  X   -0.237358  -0.007520  -0.031842   0.018081   0.156450
   19  C  2  Y   -0.082562  -0.024312  -0.248515  -0.048873  -0.154974
   20  C  2  Z   -0.013632   0.170434  -0.028089   0.366735  -0.022179
   21  C  2  S    0.005870  -0.006247   0.069787   0.010394  -0.327832
   22  C  2  X   -0.014111   0.002162   0.002345   0.018677   0.100242
   23  C  2  Y   -0.001064  -0.014347  -0.067322  -0.032229  -0.122809
   24  C  2  Z   -0.009051   0.090379  -0.007254   0.261393  -0.016772
   25  C  2 XX   -0.005385  -0.001056  -0.011805   0.001258   0.000859
   26  C  2 YY    0.013245  -0.000881   0.018047  -0.000981   0.003220
   27  C  2 ZZ   -0.000060   0.002475  -0.001612  -0.000595   0.001644
   28  C  2 XY   -0.010385  -0.000518   0.019322  -0.001981   0.006172
   29  C  2 XZ   -0.000597  -0.003079   0.003508   0.014102   0.001011
   30  C  2 YZ    0.001853   0.008292   0.002219   0.003316  -0.000421
   31  O  3  S    0.037173   0.000190   0.027025  -0.000414   0.001241
   32  O  3  S   -0.081522  -0.000630  -0.052824   0.001441  -0.008557
   33  O  3  X    0.120073   0.062072  -0.134882  -0.039756   0.566965
   34  O  3  Y   -0.286326  -0.048455  -0.209675   0.021353  -0.095800
   35  O  3  Z   -0.066049   0.432745   0.014471  -0.276452  -0.078117
   36  O  3  S   -0.128815   0.001451  -0.127072   0.001877   0.020677
   37  O  3  X    0.069115   0.037034  -0.075221  -0.028803   0.400900
   38  O  3  Y   -0.166602  -0.030225  -0.114051   0.015262  -0.072675
   39  O  3  Z   -0.038287   0.264866   0.009969  -0.194836  -0.055679
   40  O  3 XX   -0.006245  -0.001416   0.002964   0.000569  -0.005518
   41  O  3 YY    0.019766   0.005240   0.010768  -0.001746   0.003312
   42  O  3 ZZ   -0.002178  -0.003897  -0.000417   0.001494  -0.001862
   43  O  3 XY   -0.008516  -0.003733   0.008101   0.001395  -0.017498
   44  O  3 XZ   -0.000131  -0.004361   0.000236   0.003744  -0.000986
   45  O  3 YZ    0.005156  -0.028628  -0.000938   0.012763   0.002766
   46  C  4  S    0.017417   0.002684   0.003982   0.000060  -0.002600
   47  C  4  S   -0.038388  -0.006206  -0.007406  -0.000107   0.000044
   48  C  4  X    0.303181   0.029729  -0.001302   0.024188  -0.056532
   49  C  4  Y   -0.112757  -0.035533   0.321194  -0.051766  -0.021695
   50  C  4  Z   -0.042169   0.088802   0.050015   0.368459   0.008397
   51  C  4  S   -0.083486  -0.008250  -0.019848  -0.004239   0.020420
   52  C  4  X    0.125853   0.008752   0.028270   0.021225  -0.106462
   53  C  4  Y   -0.029991  -0.015951   0.127470  -0.034637  -0.004591
   54  C  4  Z   -0.015887   0.057797   0.019811   0.251923   0.009410
   55  C  4 XX    0.001121   0.000038  -0.012447  -0.001542  -0.003843
   56  C  4 YY    0.007021   0.000123   0.014768   0.001139   0.002893
   57  C  4 ZZ    0.000857   0.000661   0.000607   0.000365  -0.001306
   58  C  4 XY   -0.014293  -0.001058   0.021763   0.001683   0.004853
   59  C  4 XZ   -0.001443  -0.007176   0.003763  -0.014296   0.000639
   60  C  4 YZ    0.001920  -0.000503   0.001106  -0.005031   0.000051
   61  H  5  S   -0.144801  -0.009595  -0.030154  -0.008453   0.174222
   62  H  5  S   -0.147877  -0.010060  -0.028468  -0.011274   0.270848
   63  H  6  S    0.080619   0.002548   0.195145  -0.000692   0.046541
   64  H  6  S    0.087989   0.002616   0.193451  -0.000504   0.083947
   65  H  7  S   -0.030488  -0.011737   0.209180   0.000180   0.004932
   66  H  7  S   -0.023508  -0.006213   0.168115  -0.003440   0.075511
   67  H  8  S    0.176744   0.019799  -0.166014   0.000632  -0.030711
   68  H  8  S    0.158164   0.020849  -0.161200  -0.000485  -0.011485

                     16         17         18         19         20
                   -0.0649     0.0684     0.1053     0.1321     0.1645
                     A          A          A          A          A   
    1  C  1  S   -0.000380  -0.000351   0.056051   0.052706   0.098913
    2  C  1  S    0.000031   0.002703  -0.098339  -0.069017  -0.152051
    3  C  1  X   -0.038126  -0.049341   0.149351   0.096090   0.198197
    4  C  1  Y    0.031402   0.032101   0.100674   0.043832   0.132430
    5  C  1  Z   -0.340692  -0.403931  -0.024581   0.002045  -0.010906
    6  C  1  S    0.008603  -0.010077  -0.795100  -0.997882  -1.403214
    7  C  1  X   -0.034052  -0.068286   0.300027   0.241724   0.603065
    8  C  1  Y    0.037584   0.026595   0.224545   0.027638   0.669239
    9  C  1  Z   -0.320963  -0.550274  -0.046698  -0.013385   0.005944
   10  C  1 XX    0.000833   0.001485   0.017906  -0.002542   0.002559
   11  C  1 YY   -0.005840   0.002012  -0.007089   0.006892   0.023555
   12  C  1 ZZ    0.005002  -0.003638   0.000632  -0.000586  -0.001799
   13  C  1 XY    0.003351  -0.001077  -0.002582   0.004723  -0.005416
   14  C  1 XZ    0.000648   0.019862  -0.000613  -0.000128  -0.001870
   15  C  1 YZ    0.029822   0.004346  -0.000502   0.000775   0.003069
   16  C  2  S    0.000425  -0.000930   0.043111   0.005589  -0.093067
   17  C  2  S    0.001246   0.003616  -0.060569   0.001325   0.152600
   18  C  2  X   -0.009750   0.023613   0.026251  -0.078045  -0.085716
   19  C  2  Y    0.028273  -0.065458   0.271834   0.031156  -0.097547
   20  C  2  Z   -0.195073   0.410123   0.051885   0.002523  -0.010298
   21  C  2  S   -0.016377   0.000428  -0.780336  -0.106699   1.390769
   22  C  2  X   -0.029614   0.017496   0.011319  -0.437647  -0.516402
   23  C  2  Y    0.030963  -0.108344   0.585500   0.085633  -0.486793
   24  C  2  Z   -0.262898   0.635454   0.114934   0.032917  -0.021764
   25  C  2 XX    0.004524   0.002714  -0.013553   0.004292  -0.011321
   26  C  2 YY   -0.000076   0.002627   0.018345  -0.002739  -0.001294
   27  C  2 ZZ   -0.004055  -0.004922   0.002454   0.002758  -0.001178
   28  C  2 XY   -0.004524  -0.001293   0.014352   0.011532  -0.001574
   29  C  2 XZ    0.029861  -0.000167   0.003519   0.001283   0.000354
   30  C  2 YZ   -0.003636  -0.019575   0.000454  -0.001740  -0.000758
   31  O  3  S    0.000652  -0.002235   0.004826  -0.025353  -0.000304
   32  O  3  S   -0.000070   0.003236  -0.017651   0.059682   0.041296
   33  O  3  X    0.038027   0.031173  -0.075892   0.029477  -0.057261
   34  O  3  Y   -0.027424  -0.033094   0.013948  -0.056040  -0.083751
   35  O  3  Z    0.330893   0.261948   0.019804  -0.007204  -0.002873
   36  O  3  S   -0.011116   0.029516  -0.030303   0.254946  -0.217474
   37  O  3  X    0.037312   0.035765  -0.114128  -0.051723  -0.108126
   38  O  3  Y   -0.024756  -0.043808   0.014238  -0.146511   0.000059
   39  O  3  Z    0.326542   0.306099   0.028748  -0.010448   0.008545
   40  O  3 XX    0.000545  -0.000449   0.002934  -0.009154   0.017315
   41  O  3 YY    0.000729  -0.001222  -0.002450   0.009467   0.002670
   42  O  3 ZZ    0.000312  -0.000766  -0.003880  -0.003744   0.008342
   43  O  3 XY   -0.000315   0.000619  -0.002941  -0.000703  -0.002546
   44  O  3 XZ    0.000179   0.003481  -0.000826  -0.000311  -0.001261
   45  O  3 YZ   -0.002280   0.005546   0.000573   0.001152   0.000028
   46  C  4  S   -0.001193  -0.003890   0.033264  -0.121495   0.057624
   47  C  4  S    0.002045   0.007913  -0.056759   0.187490  -0.101392
   48  C  4  X    0.016750  -0.017422  -0.118830   0.190480   0.011443
   49  C  4  Y   -0.053698   0.030050   0.167003   0.066915  -0.097869
   50  C  4  Z    0.356306  -0.252867   0.023338   0.002478  -0.013443
   51  C  4  S    0.020191   0.051389  -0.441006   2.018623  -0.485662
   52  C  4  X    0.012836  -0.031187  -0.351367   0.433263   0.016447
   53  C  4  Y   -0.068878   0.050405   0.296470   0.137162  -0.185702
   54  C  4  Z    0.440580  -0.456448   0.046506  -0.001455  -0.032130
   55  C  4 XX    0.001038  -0.002956   0.009625   0.001821   0.009955
   56  C  4 YY   -0.000366   0.002563  -0.003828  -0.015163   0.000798
   57  C  4 ZZ   -0.000920  -0.000213   0.000608  -0.005610   0.002368
   58  C  4 XY   -0.001271   0.003831  -0.021336  -0.003863   0.004184
   59  C  4 XZ    0.010215  -0.024517  -0.004545  -0.000504   0.000383
   60  C  4 YZ    0.000864  -0.010454   0.000034  -0.001293  -0.000721
   61  H  5  S    0.002435  -0.005824   0.048341   0.032100   0.060928
   62  H  5  S    0.003010  -0.029286   0.934598   0.745349   1.611092
   63  H  6  S   -0.004730  -0.008224   0.073149   0.017660  -0.069066
   64  H  6  S   -0.010282  -0.047949   1.256571   0.058114  -1.368464
   65  H  7  S   -0.000497   0.001072  -0.042312  -0.097686   0.033690
   66  H  7  S    0.005032   0.003971  -0.247524  -1.324705   0.621696
   67  H  8  S   -0.001071  -0.003907   0.080421  -0.039588   0.022709
   68  H  8  S   -0.002597  -0.038567   0.984061  -1.177557   0.106949

                     21         22         23         24         25
                    0.1910     0.2619     0.3234     0.3332     0.5151
                     A          A          A          A          A   
    1  C  1  S    0.021740   0.040766  -0.005000  -0.083092   0.012874
    2  C  1  S   -0.062015   0.002062  -0.117871   0.102805  -0.002520
    3  C  1  X   -0.251514  -0.060719  -0.033663   0.419922  -0.122860
    4  C  1  Y    0.058948  -0.170558   0.037885  -0.189935   0.068227
    5  C  1  Z    0.033215   0.000402   0.006148  -0.070730  -0.653677
    6  C  1  S    0.083515  -1.356487   0.692077   2.059402  -0.020957
    7  C  1  X   -0.351691  -0.123050   0.699792   1.715385   0.063898
    8  C  1  Y   -0.012414  -1.928120   1.274174  -0.918996  -0.202720
    9  C  1  Z    0.044112  -0.145421   0.081052  -0.271294   0.679631
   10  C  1 XX    0.009400  -0.018799  -0.022167  -0.010057   0.018327
   11  C  1 YY    0.004790   0.023681   0.032931  -0.010257   0.003251
   12  C  1 ZZ   -0.006887  -0.016851  -0.002390   0.010233  -0.007402
   13  C  1 XY   -0.001105   0.011313   0.002638   0.016057  -0.009513
   14  C  1 XZ   -0.002375   0.000517   0.003361   0.004129  -0.020501
   15  C  1 YZ    0.001639   0.003861   0.004188  -0.004046   0.003006
   16  C  2  S   -0.068402   0.030298   0.080489   0.077124  -0.014185
   17  C  2  S    0.112212   0.028282  -0.093654  -0.094887   0.009159
   18  C  2  X   -0.087927  -0.026220  -0.259195   0.168970  -0.155478
   19  C  2  Y   -0.097093   0.022968  -0.145781  -0.280034   0.137505
   20  C  2  Z   -0.008812  -0.013452  -0.004421  -0.052964  -0.461664
   21  C  2  S    1.094885  -1.433067  -3.072620  -1.531147   0.030677
   22  C  2  X   -0.109789  -0.270706  -2.662041   1.484995   0.356372
   23  C  2  Y   -0.697679   0.005573  -1.350388  -1.965949  -0.024676
   24  C  2  Z   -0.100342  -0.026646  -0.015519  -0.359025   0.238472
   25  C  2 XX   -0.010344   0.042136  -0.018220  -0.006174  -0.017533
   26  C  2 YY    0.001744  -0.022687  -0.004406   0.023326   0.005954
   27  C  2 ZZ    0.000348  -0.000805   0.010746  -0.004739   0.004427
   28  C  2 XY    0.032217   0.010099   0.008259  -0.036166  -0.002344
   29  C  2 XZ    0.005283  -0.003287   0.003330  -0.004837  -0.021226
   30  C  2 YZ   -0.001578  -0.003308  -0.002710   0.006441  -0.029083
   31  O  3  S   -0.012293  -0.103736   0.049380   0.004361  -0.006235
   32  O  3  S    0.041358   0.087029  -0.034124   0.012429   0.028209
   33  O  3  X    0.111179  -0.098685  -0.049059  -0.126506  -0.004224
   34  O  3  Y   -0.038057  -0.189453  -0.013536   0.085993   0.000284
   35  O  3  Z   -0.013057  -0.014611  -0.004952   0.025014  -0.065984
   36  O  3  S    0.078667   2.019085  -1.205449  -0.094193   0.089612
   37  O  3  X    0.143568  -0.208498   0.023024  -0.371645  -0.006663
   38  O  3  Y   -0.083357  -0.828131   0.443333   0.161586  -0.049442
   39  O  3  Z   -0.024380  -0.060037   0.028089   0.056041  -0.058721
   40  O  3 XX    0.002771  -0.061150   0.040232  -0.007087   0.009154
   41  O  3 YY    0.005285  -0.011633  -0.020971   0.015085  -0.000802
   42  O  3 ZZ    0.002066  -0.067501   0.033943   0.015514   0.004462
   43  O  3 XY    0.003981   0.015434  -0.004275  -0.010356   0.006405
   44  O  3 XZ   -0.000196   0.000851  -0.000432   0.001714   0.013949
   45  O  3 YZ   -0.000160   0.003821  -0.005374   0.001362   0.040074
   46  C  4  S    0.008425  -0.014870  -0.075310  -0.002487   0.001119
   47  C  4  S   -0.006175   0.054522  -0.028555  -0.012579  -0.058449
   48  C  4  X   -0.087552  -0.227834  -0.013250   0.047725   0.079917
   49  C  4  Y    0.345977  -0.047091  -0.025747   0.203822   0.127092
   50  C  4  Z    0.056864   0.011929  -0.005236   0.022858  -0.563456
   51  C  4  S   -0.125115   0.229641   3.335540  -0.143987  -0.167048
   52  C  4  X   -0.284056  -0.730929  -2.876918  -0.196587  -0.032116
   53  C  4  Y    1.419564  -0.237799  -0.582105   1.013175  -0.145639
   54  C  4  Z    0.223070   0.027906   0.084010   0.155912   0.524978
   55  C  4 XX    0.007989  -0.012028  -0.021393  -0.026672  -0.006767
   56  C  4 YY   -0.009614   0.010167   0.027295   0.033396  -0.004171
   57  C  4 ZZ    0.002825  -0.000627  -0.010538  -0.004064   0.001707
   58  C  4 XY   -0.003041   0.008100  -0.030897   0.032058  -0.009970
   59  C  4 XZ   -0.000757   0.003389  -0.004013   0.006062   0.030008
   60  C  4 YZ   -0.001808   0.002299   0.008257   0.004541   0.016820
   61  H  5  S    0.027842   0.025414  -0.093786   0.011075   0.061252
   62  H  5  S   -0.477429  -0.208634   0.381526   0.742739  -0.047763
   63  H  6  S    0.018939  -0.105962   0.009057  -0.003892  -0.023127
   64  H  6  S   -1.154240   0.150560  -0.938702  -0.872746   0.069139
   65  H  7  S   -0.054621   0.067392   0.054659   0.131490   0.014374
   66  H  7  S   -1.422743   0.463604   0.204569  -0.964711   0.047754
   67  H  8  S    0.048530  -0.006977   0.121110  -0.119538  -0.003794
   68  H  8  S    1.511500   0.393634   0.431721   0.678063  -0.033131

                     26         27         28         29         30
                    0.5169     0.5817     0.5840     0.5994     0.6467
                     A          A          A          A          A   
    1  C  1  S    0.058127  -0.007309  -0.021116  -0.013773  -0.004562
    2  C  1  S    0.013268  -0.055371  -0.290151  -0.445980   0.035836
    3  C  1  X   -0.170961  -0.216888  -0.385003  -0.058783   0.021571
    4  C  1  Y   -0.025168   0.146511   0.315366   0.257594   0.032013
    5  C  1  Z    0.150739  -0.628157   0.329636  -0.043291   0.266899
    6  C  1  S   -0.166970   0.169529   0.735038   0.820545  -0.001476
    7  C  1  X   -0.112823   0.585379   1.203044  -0.181460  -0.049468
    8  C  1  Y   -0.514349  -0.472869  -1.048415  -0.000907   0.059072
    9  C  1  Z   -0.197273   0.819113  -0.602113   0.138339  -0.707369
   10  C  1 XX    0.089543   0.005909   0.002991  -0.121882   0.003309
   11  C  1 YY    0.030853  -0.026901  -0.085476  -0.013639  -0.011564
   12  C  1 ZZ   -0.049031   0.004018   0.005209   0.031033   0.009639
   13  C  1 XY   -0.048534   0.013518   0.022452  -0.012242  -0.000837
   14  C  1 XZ   -0.018312  -0.029005   0.017159   0.011108  -0.010966
   15  C  1 YZ    0.012168  -0.012936  -0.010883  -0.003899   0.016565
   16  C  2  S   -0.058242  -0.004281  -0.030163  -0.037466  -0.003992
   17  C  2  S    0.051191  -0.053972  -0.271526  -0.523310   0.037943
   18  C  2  X   -0.543588   0.099414   0.230704   0.027156  -0.028849
   19  C  2  Y    0.274589  -0.080400  -0.136212   0.077975   0.145436
   20  C  2  Z    0.190535   0.089228  -0.064739   0.013127  -0.923909
   21  C  2  S    0.087509  -0.216115  -0.327295   1.022605  -0.060582
   22  C  2  X    1.410151   0.161742   0.532667  -0.157284   0.057513
   23  C  2  Y    0.073924  -0.120429  -0.414313  -0.159612  -0.220245
   24  C  2  Z   -0.145524  -0.229101  -0.013074  -0.033481   1.529246
   25  C  2 XX   -0.060687  -0.034930  -0.130810  -0.040956  -0.004367
   26  C  2 YY   -0.002358   0.005646  -0.023738  -0.159119   0.010319
   27  C  2 ZZ    0.037597   0.004370   0.042084   0.050540  -0.004984
   28  C  2 XY   -0.023532   0.011928   0.044623  -0.013371  -0.005035
   29  C  2 XZ    0.009427   0.050742   0.002501   0.009763   0.012554
   30  C  2 YZ    0.001023   0.003887  -0.016388  -0.031884  -0.027301
   31  O  3  S   -0.026885  -0.001861   0.000011   0.015966   0.003323
   32  O  3  S    0.111611  -0.037014  -0.093101  -0.031302  -0.011216
   33  O  3  X   -0.006714  -0.117348  -0.244389   0.142032   0.020360
   34  O  3  Y   -0.041660   0.049338   0.117697  -0.041158   0.012238
   35  O  3  Z    0.016260  -0.021572   0.056825  -0.020365   0.084830
   36  O  3  S    0.384445   0.199669   0.436159  -0.281306  -0.014110
   37  O  3  X    0.012134  -0.074347  -0.155985   0.024283   0.007801
   38  O  3  Y   -0.231903  -0.028854  -0.046278   0.211771   0.021675
   39  O  3  Z   -0.009421  -0.109517   0.058306  -0.002424   0.055744
   40  O  3 XX    0.028141  -0.010065  -0.022774  -0.003138  -0.001990
   41  O  3 YY    0.013638  -0.007532   0.011232  -0.005559   0.011628
   42  O  3 ZZ   -0.001817  -0.008135  -0.035549   0.023649  -0.008937
   43  O  3 XY    0.007691   0.010087   0.016850   0.015333   0.002778
   44  O  3 XZ   -0.005795  -0.004478   0.002989   0.002669   0.008274
   45  O  3 YZ   -0.007188   0.048042  -0.015994   0.000823  -0.020904
   46  C  4  S    0.002788   0.008310   0.021245  -0.013999   0.006310
   47  C  4  S   -0.226193  -0.094110  -0.358616  -0.360492   0.037442
   48  C  4  X    0.476198   0.139050   0.285464  -0.028972   0.053832
   49  C  4  Y    0.198869  -0.192869  -0.124569   0.206737  -0.047354
   50  C  4  Z    0.150896   0.677776  -0.292095   0.114323   0.464693
   51  C  4  S   -0.720645   0.048817   0.179964   0.573172  -0.085947
   52  C  4  X   -0.363516  -0.068289  -0.009998   0.435414  -0.114475
   53  C  4  Y   -0.352144   0.418599   0.616358  -0.418579   0.071004
   54  C  4  Z   -0.170595  -0.690285   0.359592  -0.175997  -0.907518
   55  C  4 XX   -0.048971   0.016796   0.037282  -0.055205   0.013522
   56  C  4 YY    0.010585  -0.020814  -0.058498  -0.054139   0.013548
   57  C  4 ZZ    0.002016  -0.001084  -0.010739   0.032629  -0.011679
   58  C  4 XY   -0.016544  -0.017815  -0.038392   0.062254  -0.001685
   59  C  4 XZ   -0.006519  -0.031595   0.000925   0.012071   0.026238
   60  C  4 YZ   -0.001555   0.004977  -0.009103  -0.016928  -0.005501
   61  H  5  S    0.270184   0.089822   0.139457  -0.401972  -0.018467
   62  H  5  S   -0.178378   0.085124   0.195392  -0.050824   0.012457
   63  H  6  S   -0.130978   0.071744  -0.001321  -0.567211  -0.008266
   64  H  6  S    0.291476  -0.106903  -0.254052   0.014373  -0.001056
   65  H  7  S    0.118069  -0.111095  -0.260870  -0.043578   0.051822
   66  H  7  S    0.240287  -0.110729  -0.255128  -0.014126   0.035147
   67  H  8  S   -0.039728   0.090394   0.132440  -0.412855   0.035161
   68  H  8  S   -0.088876   0.006949  -0.012142  -0.199782   0.004278

                     31         32         33         34         35
                    0.6550     0.6987     0.8034     0.8392     0.8482
                     A          A          A          A          A   
    1  C  1  S    0.035364  -0.040073  -0.005293  -0.012135   0.052029
    2  C  1  S   -0.138482   0.619825   0.244328  -0.094776  -0.150905
    3  C  1  X   -0.013009   0.140297  -0.699488  -0.151984   0.334990
    4  C  1  Y   -0.547129   0.753874  -0.036126  -0.017363   0.304589
    5  C  1  Z   -0.007900   0.056858   0.075149   0.013623  -0.008587
    6  C  1  S   -0.215590  -0.395448   1.356023   0.668107   1.301730
    7  C  1  X   -0.017935  -0.103055   3.150705   0.517604  -0.316964
    8  C  1  Y    0.446724  -0.729817   0.410847  -0.160959  -0.084034
    9  C  1  Z   -0.058257  -0.055461  -0.282754  -0.065784   0.031010
   10  C  1 XX   -0.012741   0.088958  -0.050148   0.026153   0.048012
   11  C  1 YY    0.087911  -0.084607   0.165588  -0.072856   0.147218
   12  C  1 ZZ   -0.043480   0.043572   0.009536   0.014816  -0.103802
   13  C  1 XY    0.033435  -0.057928  -0.052911  -0.075999   0.079622
   14  C  1 XZ   -0.000246  -0.011939  -0.000470  -0.006649  -0.011634
   15  C  1 YZ    0.013614  -0.005477   0.023679   0.000509   0.018956
   16  C  2  S    0.045364   0.035773   0.038916   0.009339  -0.000969
   17  C  2  S   -0.351182  -0.024534   0.300722   0.048510   0.175368
   18  C  2  X   -0.371428  -0.485953  -0.053636  -0.142309   0.091068
   19  C  2  Y   -0.157400  -0.035641   0.616145   0.293003   0.200702
   20  C  2  Z   -0.094217   0.039849   0.097224   0.051159   0.016968
   21  C  2  S    0.616886  -0.373499  -1.583028  -0.236423  -0.562214
   22  C  2  X    0.452239   0.343075   0.266875   0.484556  -0.298587
   23  C  2  Y    0.138781   0.210609  -2.814754  -1.553159  -0.886420
   24  C  2  Z    0.156048  -0.017857  -0.400187  -0.248357  -0.102078
   25  C  2 XX    0.068302   0.044561   0.039461   0.049344   0.001827
   26  C  2 YY   -0.013297   0.039445   0.011014  -0.039084  -0.022440
   27  C  2 ZZ   -0.043484  -0.031947  -0.023697  -0.001686   0.009872
   28  C  2 XY    0.019492   0.055392   0.058772  -0.052225  -0.018005
   29  C  2 XZ   -0.006097   0.005405   0.002661  -0.010176  -0.000968
   30  C  2 YZ    0.000582   0.006717   0.001683  -0.003314  -0.004733
   31  O  3  S   -0.024861   0.035253   0.018333   0.001306   0.007052
   32  O  3  S    0.043718  -0.133267  -0.104081   0.132968  -0.392316
   33  O  3  X   -0.115656   0.034775  -0.030071   0.077315  -0.155846
   34  O  3  Y   -0.183374   0.339442  -0.266958   0.243922  -0.476952
   35  O  3  Z    0.006784   0.024529  -0.021863   0.015822  -0.038144
   36  O  3  S    0.023424   0.280571  -0.732156  -0.231896   0.294156
   37  O  3  X    0.013401   0.055058  -0.246539  -0.093495   0.236357
   38  O  3  Y   -0.181082   0.179959   0.738313  -0.352395   0.915333
   39  O  3  Z   -0.010518   0.011772   0.089950  -0.026159   0.068228
   40  O  3 XX    0.025258  -0.047431  -0.038907   0.063632  -0.141125
   41  O  3 YY   -0.095498   0.143606  -0.125118   0.074880  -0.186186
   42  O  3 ZZ    0.010093  -0.065497   0.008784   0.049792  -0.135664
   43  O  3 XY   -0.043822   0.040388   0.071692   0.023016  -0.046834
   44  O  3 XZ   -0.003980   0.001172   0.010863   0.000409  -0.002882
   45  O  3 YZ   -0.010216   0.017562  -0.022319  -0.001326  -0.000920
   46  C  4  S   -0.071475  -0.057191   0.009240   0.002457  -0.013027
   47  C  4  S   -0.357319  -0.022551   0.173685  -0.019533   0.289505
   48  C  4  X   -0.297078  -0.397604  -0.212501   0.124365   0.260401
   49  C  4  Y   -0.203150  -0.038698   0.083627  -0.981880  -0.300885
   50  C  4  Z    0.019429   0.014692   0.016366  -0.147379  -0.059637
   51  C  4  S    0.795424   0.382798   0.568320   0.150150  -0.047507
   52  C  4  X    0.610154   0.313268   0.246030  -0.471650  -0.726456
   53  C  4  Y    0.554334  -0.241561   0.355235   2.492424   0.943695
   54  C  4  Z   -0.030059  -0.045041   0.044173   0.383784   0.176603
   55  C  4 XX   -0.125431  -0.104478   0.064572  -0.056779   0.036164
   56  C  4 YY   -0.112997  -0.034351   0.000466   0.066002  -0.015285
   57  C  4 ZZ    0.075480   0.060447  -0.022856  -0.013450   0.026733
   58  C  4 XY   -0.034176  -0.019187  -0.039140   0.078752   0.080534
   59  C  4 XZ    0.013218   0.007389  -0.010942   0.013983   0.010355
   60  C  4 YZ   -0.031841  -0.014826   0.004740   0.008237  -0.011834
   61  H  5  S    0.121502   0.093155  -0.363636  -0.182214   0.520664
   62  H  5  S    0.066179  -0.043201   2.076942   0.330234  -0.985090
   63  H  6  S    0.146187   0.170985   0.197787  -0.039887  -0.091243
   64  H  6  S    0.021404  -0.002761  -1.456208  -0.573003  -0.314140
   65  H  7  S   -0.538427  -0.176949  -0.048606   0.480323  -0.021540
   66  H  7  S   -0.299436   0.190146  -0.293896  -1.853859  -0.420405
   67  H  8  S   -0.366633  -0.233504  -0.003603  -0.364037  -0.375613
   68  H  8  S   -0.039697  -0.174354  -0.223807   1.557282   1.117347

                     36         37         38         39         40
                    0.8673     0.9095     0.9557     0.9933     1.0896
                     A          A          A          A          A   
    1  C  1  S    0.003834   0.006771  -0.035482  -0.000985  -0.000207
    2  C  1  S    0.676539  -0.582949  -1.224650  -0.045273  -0.339070
    3  C  1  X   -0.294352  -0.069283   0.024682   0.006579  -0.174354
    4  C  1  Y   -0.075684   0.167780   0.185810  -0.006368  -0.039381
    5  C  1  Z    0.019862   0.014393   0.017015   0.118414   0.007065
    6  C  1  S   -1.876135   2.197218   3.715049   0.208861  -0.171626
    7  C  1  X    0.094534   0.845681   0.325737   0.064132   1.022907
    8  C  1  Y    0.090118  -0.494418  -1.379724   0.049844   1.206480
    9  C  1  Z   -0.013051  -0.117177  -0.189192  -0.654345   0.066130
   10  C  1 XX   -0.027385  -0.062639  -0.140354   0.006243   0.094998
   11  C  1 YY    0.099343   0.062580  -0.059241   0.002197  -0.092041
   12  C  1 ZZ    0.034296  -0.032708   0.019833  -0.010763  -0.016011
   13  C  1 XY   -0.042411   0.046980  -0.066282  -0.003444  -0.006317
   14  C  1 XZ    0.002900   0.002087   0.015007   0.022284  -0.037989
   15  C  1 YZ    0.012877   0.008413  -0.002208  -0.026911   0.007143
   16  C  2  S   -0.022915   0.001538   0.023064   0.001151   0.028931
   17  C  2  S    0.691270   0.085175   0.443194   0.047377   0.917864
   18  C  2  X   -0.138452  -0.429140  -0.390267  -0.018914   0.245265
   19  C  2  Y   -0.738137  -0.264625  -0.058844   0.007796   0.060957
   20  C  2  Z   -0.090129  -0.011226   0.012004  -0.052831  -0.007229
   21  C  2  S   -0.966962  -0.257914  -1.006770  -0.190452  -3.551016
   22  C  2  X    0.339125   1.818549   2.535258   0.075475  -2.928642
   23  C  2  Y    1.946079   0.170569  -0.250698  -0.157002  -0.234346
   24  C  2  Z    0.244682  -0.088394  -0.190894   0.261824   0.171487
   25  C  2 XX    0.115511   0.074940   0.072729   0.007444   0.016597
   26  C  2 YY   -0.058506  -0.077737   0.004441   0.001865   0.083126
   27  C  2 ZZ    0.060379   0.023258  -0.016054  -0.002868  -0.015880
   28  C  2 XY   -0.076546   0.048451   0.085308  -0.003771  -0.002207
   29  C  2 XZ   -0.016991   0.004228   0.006879   0.036742   0.012617
   30  C  2 YZ   -0.015139  -0.019896   0.002131  -0.004928  -0.007363
   31  O  3  S    0.000076   0.007814   0.001738   0.001035   0.007908
   32  O  3  S   -0.236225  -0.033606   0.167151   0.007325  -0.094196
   33  O  3  X   -0.094213   0.054488  -0.192436  -0.087946  -0.273342
   34  O  3  Y   -0.046105  -0.215126   0.123018   0.087356   0.254503
   35  O  3  Z   -0.002299   0.023146   0.026083  -0.931814   0.071213
   36  O  3  S    0.625056  -0.332929  -0.348073  -0.065488  -0.532129
   37  O  3  X    0.071847  -0.210274   0.159338   0.103173   0.209934
   38  O  3  Y    0.062663   0.541700  -0.129739  -0.098384  -0.312643
   39  O  3  Z    0.008334   0.014050  -0.016405   1.272298  -0.093898
   40  O  3 XX   -0.048595  -0.048033   0.045546   0.002681  -0.027274
   41  O  3 YY   -0.081264  -0.056294   0.014673  -0.004305  -0.061057
   42  O  3 ZZ   -0.095644   0.037794   0.127001   0.010396   0.075962
   43  O  3 XY    0.022714  -0.032146   0.022263  -0.000272   0.009752
   44  O  3 XZ   -0.002961   0.004023   0.014638   0.016650   0.003837
   45  O  3 YZ   -0.001090  -0.007058  -0.013840   0.030464  -0.019643
   46  C  4  S   -0.000841   0.029640   0.001685   0.000489  -0.022798
   47  C  4  S    0.242570  -0.344117   1.206594  -0.067221  -0.671135
   48  C  4  X    0.174364  -0.652989   0.008116  -0.035363  -0.195323
   49  C  4  Y   -0.020365  -0.174342   0.068972  -0.008503   0.294770
   50  C  4  Z   -0.018624   0.013488   0.014453   0.044386   0.045973
   51  C  4  S   -0.856311  -0.097822  -3.607126   0.199625   4.462268
   52  C  4  X    0.076643   1.635923   0.679164   0.044033  -0.677257
   53  C  4  Y   -0.206634   0.490761   0.291605   0.077076  -2.058773
   54  C  4  Z   -0.021460  -0.026889  -0.005791  -0.144404  -0.257334
   55  C  4 XX   -0.015850  -0.094004   0.069933  -0.004475   0.006076
   56  C  4 YY    0.019052   0.123348   0.052109   0.005888  -0.018755
   57  C  4 ZZ    0.022008  -0.088378   0.039094  -0.010141  -0.065142
   58  C  4 XY    0.065197  -0.068692  -0.036981  -0.000904   0.154531
   59  C  4 XZ    0.013737  -0.010714  -0.008459  -0.025584   0.013826
   60  C  4 YZ   -0.005272   0.040826   0.005787  -0.014182  -0.012176
   61  H  5  S   -0.294170   0.238291  -0.100847   0.022956   0.488995
   62  H  5  S    0.823262  -0.173284  -0.619174   0.013004   0.233918
   63  H  6  S   -0.576334  -0.254513   0.024148  -0.029147  -0.020707
   64  H  6  S    2.018900   0.805657   0.450683   0.003425   0.044652
   65  H  7  S   -0.059233   0.532697  -0.258916   0.015271   0.279686
   66  H  7  S    0.106805  -1.154387   0.659981  -0.111349   0.159181
   67  H  8  S   -0.168129   0.529494  -0.128465   0.031540  -0.445249
   68  H  8  S    0.308877  -1.105367   0.510140  -0.082239  -0.955319

                     41         42         43         44         45
                    1.1072     1.1337     1.2736     1.3407     1.4355
                     A          A          A          A          A   
    1  C  1  S    0.000025   0.026969   0.030789   0.002944   0.003428
    2  C  1  S   -0.054237   0.606252   0.094499  -0.008604   0.038426
    3  C  1  X   -0.402904  -0.089483  -0.194346   0.002548  -0.022408
    4  C  1  Y   -0.014147  -0.162793   0.000512   0.008825  -0.001245
    5  C  1  Z    0.042154  -0.003480   0.021660   0.003260  -0.063319
    6  C  1  S   -0.851943  -2.507245  -1.898178   0.169589  -0.099934
    7  C  1  X    1.855138  -0.032257  -1.482664  -0.146381   0.083753
    8  C  1  Y    0.216315   1.839297   0.504401  -0.000817   0.200446
    9  C  1  Z   -0.177133   0.189079   0.143845   0.128212   0.080328
   10  C  1 XX    0.071748   0.054164  -0.094381  -0.094352   0.066368
   11  C  1 YY   -0.088648  -0.003813   0.047218  -0.042891  -0.022471
   12  C  1 ZZ    0.015352   0.006758   0.043730   0.135897  -0.040257
   13  C  1 XY    0.151730   0.023356   0.039231   0.077674  -0.020373
   14  C  1 XZ   -0.005697  -0.042492   0.048557  -0.378260   0.383391
   15  C  1 YZ   -0.025716   0.006773  -0.057206   0.338301   0.141119
   16  C  2  S   -0.004998  -0.043773  -0.028116  -0.000224  -0.001108
   17  C  2  S   -0.150664  -1.237981  -0.750491  -0.008458  -0.027051
   18  C  2  X   -0.015159  -0.034212   0.032044   0.008397   0.000797
   19  C  2  Y   -0.161175   0.066846  -0.337488  -0.035179   0.017693
   20  C  2  Z   -0.019327   0.010045  -0.052206  -0.003179  -0.130789
   21  C  2  S   -0.135565   5.114436   3.080262   0.034837   0.102659
   22  C  2  X   -0.325238  -0.628520   0.201734   0.130467  -0.165885
   23  C  2  Y    0.489735  -0.056542   4.058570   0.325542   0.003089
   24  C  2  Z    0.113775   0.069057   0.564597   0.035895   0.009573
   25  C  2 XX   -0.012197   0.023027  -0.075110   0.045051   0.031892
   26  C  2 YY   -0.020718  -0.168636  -0.006579   0.062188  -0.132130
   27  C  2 ZZ    0.011268  -0.000723   0.044514  -0.106024   0.098017
   28  C  2 XY    0.065393  -0.013701   0.064710  -0.078008  -0.007002
   29  C  2 XZ    0.020672   0.014172  -0.024408   0.444342   0.299677
   30  C  2 YZ   -0.019074  -0.058456   0.013971  -0.269987   0.511144
   31  O  3  S   -0.000267   0.014674   0.011710   0.005821   0.004668
   32  O  3  S   -0.070812   0.026105   0.404497   0.156679   0.054450
   33  O  3  X    0.643115  -0.350319  -0.254599  -0.011090  -0.013582
   34  O  3  Y    0.009964   0.184573  -0.256813  -0.058651  -0.003403
   35  O  3  Z   -0.066555   0.041312  -0.018429  -0.035574   0.005985
   36  O  3  S    0.021518  -0.569843  -0.639752  -0.345100  -0.219387
   37  O  3  X   -1.349270   0.502666   0.549794   0.034195   0.008934
   38  O  3  Y   -0.036585  -0.195283   0.415238   0.175140   0.058869
   39  O  3  Z    0.138607  -0.061045   0.049220  -0.111923  -0.099165
   40  O  3 XX   -0.042489   0.029259   0.111896   0.005145   0.034738
   41  O  3 YY   -0.002803   0.022532   0.126244   0.075095   0.039615
   42  O  3 ZZ    0.018703   0.026693   0.051801   0.032674  -0.024102
   43  O  3 XY   -0.115842   0.005581   0.038013   0.008266  -0.025038
   44  O  3 XZ   -0.006405  -0.013213   0.003290  -0.172535   0.137607
   45  O  3 YZ    0.011433  -0.000269   0.034284  -0.140289  -0.141014
   46  C  4  S    0.007143   0.021463   0.015617   0.001584   0.000179
   47  C  4  S    0.680475   0.968043   0.215350  -0.021717   0.018809
   48  C  4  X    0.033475  -0.278942   0.050593   0.033360  -0.019383
   49  C  4  Y    0.055435   0.055833   0.063616   0.006281   0.023787
   50  C  4  Z    0.007313   0.013309   0.016298  -0.123029  -0.092581
   51  C  4  S   -1.372761  -2.513570  -2.225961  -0.174037   0.060760
   52  C  4  X    0.152457   1.102836   1.370863   0.032654   0.015791
   53  C  4  Y   -1.059021   0.094313  -2.218776  -0.097375  -0.090184
   54  C  4  Z   -0.174146  -0.051835  -0.398534   0.011534  -0.008068
   55  C  4 XX    0.012057   0.005311  -0.109554  -0.033580  -0.046761
   56  C  4 YY    0.032632   0.112546   0.092020   0.051071  -0.032515
   57  C  4 ZZ    0.041730  -0.004502   0.048480  -0.016942   0.079360
   58  C  4 XY    0.029894  -0.000416   0.088259   0.020148   0.080349
   59  C  4 XZ    0.000196  -0.004505   0.046176  -0.251279  -0.451777
   60  C  4 YZ   -0.006675   0.004884   0.018265  -0.222137   0.138150
   61  H  5  S    0.358595   0.418273  -0.235142  -0.066936   0.036266
   62  H  5  S    0.916033   0.535972  -0.138060  -0.062952   0.077132
   63  H  6  S    0.043272  -0.458254   0.726636   0.087475  -0.016770
   64  H  6  S    0.154576  -0.683332   1.228363   0.151823  -0.027539
   65  H  7  S    0.037575   0.099918   0.660219   0.029550   0.012824
   66  H  7  S    0.978318   0.133846   0.766994   0.053674   0.026035
   67  H  8  S   -0.363926   0.110383  -0.467400  -0.025762  -0.015035
   68  H  8  S    0.131246   0.048240  -0.588680   0.007329  -0.034664

                     46         47         48         49         50
                    1.5440     1.5644     1.6573     1.7241     1.7978
                     A          A          A          A          A   
    1  C  1  S    0.000974  -0.023420  -0.000326   0.009810   0.021231
    2  C  1  S    0.004492  -0.279838  -0.000508   0.366690  -0.109900
    3  C  1  X   -0.031293   0.022346  -0.000727   0.198717   0.038113
    4  C  1  Y    0.018425  -0.038155   0.000346  -0.166876   0.094041
    5  C  1  Z   -0.182033  -0.012217   0.005309  -0.040459   0.001749
    6  C  1  S   -0.032098  -2.393581   0.005397  -2.206684  -0.300308
    7  C  1  X   -0.008590  -1.655950  -0.022748  -1.175903   0.765530
    8  C  1  Y    0.069744  -3.046356   0.009367  -1.174381   0.121765
    9  C  1  Z    0.121201  -0.122798  -0.177747   0.000753  -0.078124
   10  C  1 XX    0.068395   0.237149  -0.046077  -0.256396  -0.189888
   11  C  1 YY   -0.070693  -0.171421  -0.025803  -0.119532   0.064928
   12  C  1 ZZ    0.003251  -0.095651   0.071669   0.443424   0.095843
   13  C  1 XY    0.030011  -0.140704   0.042881   0.072779  -0.442776
   14  C  1 XZ    0.373725  -0.059709  -0.241551   0.086521  -0.006721
   15  C  1 YZ    0.474722   0.040858   0.170904  -0.054507   0.051019
   16  C  2  S   -0.002413  -0.020666  -0.000180  -0.007746   0.017244
   17  C  2  S   -0.041089  -0.571693  -0.000534   0.040272  -0.290802
   18  C  2  X    0.004416  -0.124217   0.002065  -0.134811   0.240011
   19  C  2  Y   -0.021319  -0.140084  -0.004843   0.077201  -0.161447
   20  C  2  Z    0.090835  -0.010672   0.027540   0.020842  -0.034824
   21  C  2  S    0.176199   2.272211   0.010155   0.829253  -0.097014
   22  C  2  X    0.002412   2.115020   0.050639   0.838330  -0.431801
   23  C  2  Y    0.118498   1.906617   0.006002   0.995769   0.298620
   24  C  2  Z    0.007767   0.080818   0.182499   0.066089   0.085392
   25  C  2 XX   -0.010970  -0.055920  -0.008312  -0.122044   0.045127
   26  C  2 YY    0.042830   0.180320  -0.005905  -0.156390  -0.023595
   27  C  2 ZZ   -0.032458  -0.117574   0.013901   0.379076   0.006083
   28  C  2 XY    0.024825  -0.043420   0.017923   0.164782  -0.353125
   29  C  2 XZ   -0.163333   0.024145  -0.123096   0.066018  -0.057817
   30  C  2 YZ   -0.179335   0.045572  -0.005232  -0.096169   0.016789
   31  O  3  S    0.002115  -0.102513   0.000310  -0.043674   0.003872
   32  O  3  S    0.038395  -1.602164  -0.001286  -0.826338   0.120984
   33  O  3  X   -0.020124   0.021105  -0.007872  -0.050515   0.242293
   34  O  3  Y    0.005446   0.096628   0.007258   0.070919  -0.087513
   35  O  3  Z   -0.113427  -0.006642  -0.056616   0.005836  -0.037079
   36  O  3  S   -0.119760   5.692682   0.000440   2.910054  -0.297400
   37  O  3  X    0.007935  -0.095513   0.009821   0.067000  -0.411999
   38  O  3  Y    0.045873  -1.651515  -0.007192  -0.923420   0.154546
   39  O  3  Z   -0.075056  -0.128384   0.075531  -0.083079   0.062377
   40  O  3 XX    0.021931  -0.053091  -0.053080  -0.535494  -0.092845
   41  O  3 YY    0.091644  -0.560493   0.011010  -0.279070  -0.114043
   42  O  3 ZZ   -0.087531  -0.543558   0.043330   0.321934   0.285363
   43  O  3 XY   -0.066086   0.025573   0.017626   0.037389   0.518905
   44  O  3 XZ    0.084538  -0.072864  -0.303765   0.095904   0.094671
   45  O  3 YZ   -0.470418  -0.023410  -0.068772  -0.080513  -0.109893
   46  C  4  S    0.000949   0.004207   0.000452   0.014983   0.006251
   47  C  4  S    0.020357   0.179771  -0.002571   0.015053   0.076748
   48  C  4  X    0.006666  -0.020451   0.009690   0.076207  -0.045315
   49  C  4  Y   -0.002923   0.045114  -0.003858  -0.097432   0.067902
   50  C  4  Z    0.083801  -0.006504   0.024926  -0.021248   0.017468
   51  C  4  S   -0.109495  -2.581792  -0.042428  -1.187534  -0.007367
   52  C  4  X    0.073013   1.270853   0.003575   0.152002  -0.022426
   53  C  4  Y   -0.080239  -0.106104   0.009100   0.031407  -0.116565
   54  C  4  Z   -0.084918  -0.062796  -0.068213   0.004093  -0.027558
   55  C  4 XX    0.033938  -0.065864  -0.005700  -0.031820  -0.136847
   56  C  4 YY    0.010315   0.120283  -0.215411  -0.218517   0.166322
   57  C  4 ZZ   -0.047862  -0.058741   0.220646   0.287668   0.033391
   58  C  4 XY   -0.045281   0.022317   0.058226  -0.073357   0.082104
   59  C  4 XZ    0.321554  -0.022274  -0.054323   0.014093   0.039026
   60  C  4 YZ   -0.022840   0.014545   0.835024  -0.094280   0.019472
   61  H  5  S   -0.003846  -0.316502  -0.003686   0.048222   0.576852
   62  H  5  S    0.010778  -0.737359   0.000713  -0.285241   0.193384
   63  H  6  S    0.007736   0.245950   0.013233   0.217676   0.189613
   64  H  6  S    0.027711   0.590025   0.015656   0.419486   0.052484
   65  H  7  S    0.021882   0.140595   0.002015   0.278045  -0.204269
   66  H  7  S    0.036929   0.073541   0.005448   0.064404   0.185696
   67  H  8  S   -0.015666   0.037910  -0.000079   0.068429   0.069367
   68  H  8  S   -0.038197  -0.222284   0.003562   0.161217   0.013509

                     51         52         53         54         55
                    1.8366     1.9216     1.9982     2.0459     2.1614
                     A          A          A          A          A   
    1  C  1  S    0.000279   0.002244  -0.021867  -0.002359   0.031868
    2  C  1  S   -0.007223   0.187240   0.170281   0.053029   0.260492
    3  C  1  X    0.008877   0.043326   0.229909  -0.132562   0.077810
    4  C  1  Y   -0.012235  -0.122512   0.003408   0.195503  -0.027418
    5  C  1  Z    0.068261  -0.014090  -0.017799   0.035825  -0.017020
    6  C  1  S   -0.010604  -0.954980  -0.413787  -1.485569  -1.081917
    7  C  1  X   -0.021196  -0.697211   0.035933  -1.658424  -0.480441
    8  C  1  Y   -0.084863   0.123682  -0.059221  -0.589634   0.153170
    9  C  1  Z    0.104411   0.100947  -0.028253   0.098640   0.020338
   10  C  1 XX   -0.012065   0.159433  -0.441451  -0.024512  -0.352767
   11  C  1 YY   -0.001848  -0.117756   0.377323   0.217704  -0.130234
   12  C  1 ZZ    0.018060  -0.109481   0.012757  -0.297083   0.532858
   13  C  1 XY    0.000395   0.064514  -0.048399   0.197254   0.102683
   14  C  1 XZ   -0.108455  -0.021742   0.025737  -0.035457   0.010821
   15  C  1 YZ   -0.079087  -0.010987   0.055193   0.043003  -0.057494
   16  C  2  S    0.001191  -0.023005  -0.019206  -0.042678   0.001899
   17  C  2  S    0.004708  -0.259739  -0.311447  -0.474766   0.347605
   18  C  2  X   -0.000893   0.033797  -0.114936  -0.159294   0.017405
   19  C  2  Y   -0.002510  -0.201285  -0.138719   0.041236   0.222015
   20  C  2  Z    0.045998  -0.027925  -0.014160   0.014304   0.039752
   21  C  2  S   -0.011585   1.191230   0.375437   2.119113  -0.303078
   22  C  2  X    0.041138  -0.361318   0.506374   0.736838  -0.658611
   23  C  2  Y    0.043471   0.498135   0.515454   1.790564   0.104719
   24  C  2  Z   -0.140233   0.073966   0.050953   0.183733   0.110461
   25  C  2 XX    0.008960  -0.207670   0.376035   0.401474  -0.066201
   26  C  2 YY    0.086513   0.599674  -0.275164  -0.190594  -0.162993
   27  C  2 ZZ   -0.091718  -0.343539  -0.224476  -0.239297   0.292210
   28  C  2 XY   -0.051961   0.203540   0.407894  -0.210963  -0.081989
[...]

          ATOMIC WEIGHTS (AMU)

    1     C                12.00000
    2     C                12.00000
    3     O                15.99491
    4     C                12.00000
    5     H                 1.00782
    6     H                 1.00782
    7     H                 1.00782
    8     H                 1.00782

 MODES    1 TO    6 ARE TAKEN AS ROTATIONS AND TRANSLATIONS.

 ANALYZING SYMMETRY OF NORMAL MODES...

     FREQUENCIES IN CM**-1, IR INTENSITIES IN DEBYE**2/AMU-ANGSTROM**2,
     REDUCED MASSES IN AMU.

                            1           2           3           4           5
       FREQUENCY:        16.54        9.69        0.36        0.04        0.04  
        SYMMETRY:         A           A           A           A           A   
    REDUCED MASS:      2.50378     4.23714     5.74662     6.99043     6.99220
    IR INTENSITY:      0.04448     0.06764     0.00872     0.00000     0.00000

  1   C            X -0.00908807  0.00967738 -0.00961728  0.07457223  0.11040619
                   Y  0.01704065  0.08665291  0.05606343  0.10222799 -0.06493161
                   Z -0.13001066  0.01263262  0.10434322 -0.04232046  0.03870452
  2   C            X -0.00697426 -0.09121495 -0.00665559  0.07476144  0.11097963
                   Y  0.01102013 -0.01843670  0.05009200  0.10248892 -0.06429430
                   Z -0.08978750  0.00468316  0.14900484 -0.04256003  0.03860587
  3   O            X  0.00614802  0.12687162 -0.01204028  0.07434515  0.10972879
                   Y -0.00577159  0.06881119  0.06073546  0.10224603 -0.06483616
                   Z  0.05294348 -0.00019049  0.06586990 -0.04208975  0.03887566
  4   C            X  0.00938273 -0.05794397 -0.00655977  0.07469286  0.11078082
                   Y -0.02160012 -0.14441314  0.04985636  0.10274816 -0.06356563
                   Z  0.15612189 -0.01662359  0.14989515 -0.04253810  0.03867281
  5   H            X -0.02673567 -0.02921367 -0.00954186  0.07465296  0.11063253
                   Y  0.04428640  0.18682886  0.05617400  0.10203623 -0.06550601
                   Z -0.34576095  0.03172176  0.10803799 -0.04235973  0.03861042
  6   H            X -0.02091672 -0.19349869 -0.00466475  0.07496983  0.11156214
                   Y  0.03398316  0.01134493  0.04616408  0.10244846 -0.06445892
                   Z -0.27026087  0.01708925  0.18103789 -0.04275436  0.03847029
  7   H            X  0.02193784  0.04552013 -0.00852344  0.07450128  0.11019418
                   Y -0.04370308 -0.17155134  0.05383834  0.10278120 -0.06342114
                   Z  0.33293349 -0.02862778  0.11730087 -0.04233928  0.03880322
  8   H            X  0.01028144 -0.13110462 -0.00462024  0.07482598  0.11118907
                   Y -0.02656295 -0.22269929  0.04581355  0.10292553 -0.06310412
                   Z  0.18755808 -0.02262739  0.18239813 -0.04271265  0.03859849

 TRANS. SAYVETZ    X  0.00262776  0.04481230 -0.49413908  4.17875168  6.18815081
                   Y -0.00672188 -0.01134562  3.04717008  5.73839793 -3.60904427
                   Z -0.01356676  0.00279604  6.48588376 -2.37374240  2.16930226
               TOTAL  0.01536703  0.04631072  7.18304302  7.48504037  7.48493709

   ROT. SAYVETZ    X  2.62772986 -1.29453553 -3.58001746  0.02274915  0.01864006
                   Y -9.61036037  2.56267846 -2.89443180  0.01179977 -0.00356656
                   Z -1.66199562-19.00245485 -0.15237853  0.04008881  0.11077479
               TOTAL 10.10080294 19.21812773  4.60624355  0.04758015  0.11238873

                            6           7           8           9          10
       FREQUENCY:         1.23      185.10      288.25      561.81      684.90  
        SYMMETRY:         A           A           A           A           A   
    REDUCED MASS:      6.89471     1.84095     3.57792     1.25530     2.78027
    IR INTENSITY:      0.10248     0.16498     0.16430     0.14871     0.24930

  1   C            X -0.00014099  0.00973869 -0.01209665  0.00163916 -0.11525334
                   Y  0.01044960 -0.01479162 -0.03298909  0.00190383 -0.04518624
                   Z  0.07205320  0.12071105 -0.00174153 -0.01164655  0.00301464
  2   C            X -0.01048909 -0.00721498 -0.04974329 -0.00860529 -0.01829069
                   Y  0.03052348  0.01471648 -0.05829357  0.01352529  0.14836691
                   Z -0.08014946 -0.11252777 -0.00450225 -0.12553305  0.01750838
  3   O            X  0.00854450 -0.00765316  0.14075804  0.00103239  0.07237520
                   Y -0.00568974  0.01045049 -0.05515156 -0.00249259 -0.08904561
                   Z  0.20460481 -0.08186088 -0.01751639  0.02894237 -0.01627834
  4   C            X -0.01060081  0.00448284 -0.10061148  0.00053266  0.02494654
                   Y  0.03076897 -0.00880169  0.12647575 -0.00310888  0.03262080
                   Z -0.08141858  0.06238229  0.02280834  0.02481041  0.00282860
  5   H            X -0.00061664  0.04142703 -0.05324469  0.02880004 -0.13064345
                   Y  0.01052815 -0.06400052  0.07988367 -0.04074165 -0.00411477
                   Z  0.05800472  0.50744860  0.01872494  0.31521207  0.01450461
  6   H            X -0.01764209 -0.02323935  0.02606401  0.02229089  0.11320851
                   Y  0.04417964  0.04275192 -0.07781788 -0.04506573  0.10761978
                   Z -0.19081187 -0.33602787 -0.01429492  0.34865205  0.01113667
  7   H            X -0.00354249  0.02410421 -0.30707213 -0.03111517  0.38727741
                   Y  0.01694249 -0.04413720  0.18021613  0.05075255 -0.06683800
                   Z  0.03113807  0.34622616  0.04636467 -0.40232275 -0.03894390
  8   H            X -0.01741371 -0.00405564  0.03471334  0.04024602 -0.22560311
                   Y  0.04432460  0.00487626  0.27391292 -0.07207514 -0.24050098
                   Z -0.19217334 -0.05900932  0.03001565  0.61712041 -0.00637989

 TRANS. SAYVETZ    X -0.15762394  0.00020248  0.00011178  0.00000427 -0.00016707
                   Y  0.88678021 -0.00035037 -0.00006261  0.00000599 -0.00008773
                   Z  1.90231559 -0.00034424  0.00004427  0.00003751  0.00001235
               TOTAL  2.10476342  0.00053128  0.00013555  0.00003822  0.00018910

   ROT. SAYVETZ    X 12.23373027  0.01119488 -0.02688217  0.00743211  0.00796657
                   Y  9.81494948 -0.04544374  0.02919647 -0.00589129 -0.00712413
                   Z  0.45931546  0.03365209 -0.03928127 -0.00266769  0.00129283
               TOTAL 15.69102801  0.05764479  0.05583997  0.00985191  0.01076527

                           11          12          13          14          15
       FREQUENCY:       940.95     1002.03     1030.42     1038.68     1076.33  
        SYMMETRY:         A           A           A           A           A   
    REDUCED MASS:      3.17027     1.36027     1.14655     1.62445     1.47273
    IR INTENSITY:      1.43665     0.34045     0.42504     0.29764     0.12329

  1   C            X  0.19054238  0.00224814 -0.00678427 -0.01103277  0.02733360
                   Y -0.05412434 -0.00317105  0.01142241  0.01842094  0.01067073
                   Z -0.02081016  0.02295327 -0.08907410 -0.14999701  0.00165637
  2   C            X -0.05520409  0.00378018 -0.00030346  0.00660910  0.01667144
                   Y  0.08465135 -0.00671074 -0.00060061 -0.01260855 -0.11696907
                   Z  0.01551075  0.06227079 -0.01220123  0.09818506 -0.01537783
  3   O            X -0.02073928 -0.00042772  0.00138545  0.00261793 -0.01808091
                   Y -0.03022906  0.00041551 -0.00179668 -0.00428648  0.04701837
                   Z -0.00223012 -0.00656589  0.02258008  0.03515125  0.00667777
  4   C            X -0.09566361 -0.00859745 -0.00361211 -0.00001749 -0.05782296
                   Y  0.02888323  0.01652056  0.00660287  0.00029554  0.08125340
                   Z  0.01027649 -0.13669745 -0.04459167  0.00322677  0.01385888
  5   H            X  0.25349106 -0.00616694  0.02424954  0.05047521 -0.00682135
                   Y -0.22167843  0.00918086 -0.03525091 -0.07600947  0.10942876
                   Z -0.04968420 -0.08669439  0.30341128  0.61359337  0.00523888
  6   H            X -0.19659665 -0.02184217  0.04984082 -0.02738657  0.44971611
                   Y  0.13460924  0.03564279 -0.07883447  0.05003382 -0.24220186
                   Z  0.03426388 -0.27015196  0.59483879 -0.40504359 -0.07195453
  7   H            X  0.04783625  0.02268503  0.04572299 -0.00817422  0.38941383
                   Y -0.01419317 -0.04807668 -0.07682463  0.02064070 -0.04513072
                   Z -0.00337060  0.39360838  0.61513883 -0.16886072 -0.03731816
  8   H            X -0.24813884  0.04270272 -0.01439518 -0.00357780 -0.38082868
                   Y -0.12632046 -0.08238751  0.01193718  0.00063909 -0.27015185
                   Z -0.00503651  0.68033834 -0.13491496 -0.01906444 -0.00359181

 TRANS. SAYVETZ    X -0.00015706  0.00000026  0.00000531  0.00000497 -0.00000480
                   Y  0.00004815  0.00000064 -0.00001499  0.00000062 -0.00004633
                   Z  0.00004061  0.00001019  0.00002293  0.00000487 -0.00000847
               TOTAL  0.00016923  0.00001021  0.00002791  0.00000698  0.00004734

   ROT. SAYVETZ    X  0.00284269 -0.00177400 -0.00190609  0.00167673  0.00057702
                   Y -0.00080113 -0.00184098 -0.00120383 -0.00140302 -0.00522064
                   Z  0.00226545 -0.00013714 -0.00050109 -0.00025110  0.00172696
               TOTAL  0.00372222  0.00256029  0.00230943  0.00220067  0.00552905

                           16          17          18          19          20
       FREQUENCY:      1325.22     1445.09     1452.70     1686.18     1806.71  
        SYMMETRY:         A           A           A           A           A   
    REDUCED MASS:      1.32239     1.15712     1.30150     4.74077     7.64833
    IR INTENSITY:      0.05868     0.09453     0.91306     1.66544     2.29176

  1   C            X  0.00466664  0.04144015  0.07643441 -0.02088488  0.02647097
                   Y -0.00279409 -0.00814087 -0.01729427  0.07243455  0.21102311
                   Z -0.00077288 -0.00434561 -0.00811750  0.01054289  0.02410804
  2   C            X  0.01860800  0.06663738 -0.09279109  0.18234825 -0.05642252
                   Y  0.09659308  0.01840905  0.03673314  0.01214067 -0.02413694
                   Z  0.01136065 -0.00241672  0.01088052 -0.01055336  0.00087311
  3   O            X  0.00615757 -0.03437955 -0.03148610 -0.00380017 -0.02230451
                   Y  0.01222933 -0.04769545 -0.03651400 -0.04843686 -0.13795855
                   Z  0.00105067 -0.00317528 -0.00200476 -0.00568737 -0.01534828
  4   C            X -0.05795556  0.01983521 -0.01372134 -0.16629346  0.04711015
                   Y -0.09019299  0.00542711 -0.02951988 -0.03712376  0.01539050
                   Z -0.00734670 -0.00053347 -0.00284130  0.00599570 -0.00114187
  5   H            X  0.06021627 -0.20634737 -0.10661984 -0.01194059  0.13163609
                   Y -0.12163507  0.67907347  0.51039162  0.02357140 -0.11576916
                   Z -0.01929905  0.10074585  0.07184981  0.00379192 -0.02526447
  6   H            X  0.71134888 -0.11534425  0.24612407 -0.11380617  0.09510674
                   Y -0.09535754  0.07877835 -0.05659714  0.11759911 -0.07907541
                   Z -0.06128961  0.01809669 -0.02430580  0.02241146 -0.01665807
  7   H            X -0.44188106 -0.38029796  0.34973460  0.19937776 -0.05051521
                   Y  0.00640380  0.10631788 -0.11911422 -0.15162419  0.05237591
                   Z  0.02759110  0.03692925 -0.03687727 -0.03136716  0.00992612
  8   H            X -0.01449765 -0.27550840  0.36852927  0.04418744 -0.02639547
                   Y -0.02643291 -0.29408729  0.36482081  0.21427319 -0.07643350
                   Z -0.00225376 -0.01851028  0.02211601  0.02418697 -0.00823643

 TRANS. SAYVETZ    X -0.00002843 -0.00009195 -0.00007343 -0.00000403  0.00014928
                   Y  0.00000266  0.00000246 -0.00003555  0.00008864  0.00007045
                   Z  0.00001457 -0.00000227  0.00003396  0.00002582  0.00002952
               TOTAL  0.00003206  0.00009201  0.00008837  0.00009241  0.00016769

   ROT. SAYVETZ    X  0.00074198  0.00006770 -0.00231658 -0.00074754  0.00061505
                   Y  0.00073215 -0.00124092  0.00045749 -0.00070422  0.00030053
                   Z -0.00233073  0.00007895  0.00255197  0.00159642 -0.00042269
               TOTAL  0.00255321  0.00124527  0.00347684  0.00189824  0.00080453

                           21          22          23          24
       FREQUENCY:      2926.06     3168.70     3182.46     3260.68  
        SYMMETRY:         A           A           A           A   
    REDUCED MASS:      1.08441     1.06037     1.09030     1.11774
    IR INTENSITY:      3.66922     0.18769     0.26665     0.08499

  1   C            X -0.07625406 -0.00236647 -0.00467255 -0.00047536
                   Y -0.02422389 -0.00098011  0.00104989 -0.00019505
                   Z  0.00314282  0.00006478  0.00051098  0.00001081
  2   C            X  0.00222637 -0.00776079 -0.02604270 -0.00333696
                   Y  0.00200265 -0.03902744 -0.06769469 -0.00853397
                   Z  0.00010035 -0.00432145 -0.00670032 -0.00083772
  3   O            X  0.00037792  0.00035174 -0.00005036  0.00016259
                   Y -0.00178114  0.00046240 -0.00027616  0.00027616
                   Z -0.00025182  0.00003031 -0.00003600  0.00002276
  4   C            X -0.00032369 -0.05265906  0.03464681  0.02732558
                   Y  0.00004498 -0.01107366  0.01877745 -0.08919195
                   Z  0.00003035  0.00188824  0.00015890 -0.01261445
  5   H            X  0.89780675  0.01617211  0.03840369 -0.00024359
                   Y  0.32642814  0.00435476  0.00757488 -0.00088745
                   Z -0.03199203 -0.00077388 -0.00218912 -0.00007993
  6   H            X -0.02250670  0.14144357  0.23143623  0.02910571
                   Y -0.03891598  0.47272934  0.76967462  0.08933611
                   Z -0.00334656  0.04925942  0.08004248  0.00914694
  7   H            X  0.00496925  0.14434509 -0.10678570  0.18085335
                   Y  0.00624499  0.54187636 -0.39939423  0.62155193
                   Z  0.00043289  0.05752452 -0.04238535  0.06501695
  8   H            X -0.00101057  0.44005768 -0.20907304 -0.49226899
                   Y -0.00146546 -0.41811140  0.19646483  0.45153703
                   Z -0.00007974 -0.07827933  0.03690335  0.08559950

 TRANS. SAYVETZ    X -0.00003295  0.00001484 -0.00000578 -0.00000478
                   Y -0.00002537 -0.00002777 -0.00001107 -0.00000793
                   Z -0.00000491  0.00001143 -0.00000351  0.00000062
               TOTAL  0.00004187  0.00003349  0.00001297  0.00000929

   ROT. SAYVETZ    X -0.00015706  0.00060191 -0.00029570 -0.00009060
                   Y  0.00045138  0.00029893 -0.00014033 -0.00044079
                   Z -0.00014084  0.00027743 -0.00034466  0.00038507
               TOTAL  0.00049825  0.00072707  0.00047531  0.00059227

 REFERENCE ON SAYVETZ CONDITIONS - A. SAYVETZ, J.CHEM.PHYS., 7, 383-389(1939).

 NOTE - THE MODES J,K ARE ORTHONORMALIZED ACCORDING TO
 SUM ON I   M(I) * (X(I,J)*X(I,K) + Y(I,J)*Y(I,K) + Z(I,J)*Z(I,K)) = DELTA(J,K)

  MODE FREQ(CM**-1)  SYMMETRY  RED. MASS  IR INTENS.
     1      16.542    A        2.503783    0.044484
     2       9.687    A        4.237135    0.067644
     3       0.359    A        5.746621    0.008718
     4       0.041    A        6.990426    0.000001
     5       0.040    A        6.992205    0.000004
     6       1.229    A        6.894706    0.102477
     7     185.099    A        1.840953    0.164983
     8     288.254    A        3.577918    0.164298
     9     561.811    A        1.255301    0.148707
    10     684.904    A        2.780265    0.249297
    11     940.951    A        3.170268    1.436650
    12    1002.032    A        1.360270    0.340446
    13    1030.421    A        1.146550    0.425035
    14    1038.675    A        1.624448    0.297635
    15    1076.326    A        1.472732    0.123294
    16    1325.224    A        1.322389    0.058680
    17    1445.090    A        1.157121    0.094533
    18    1452.696    A        1.301504    0.913060
    19    1686.184    A        4.740766    1.665443
    20    1806.715    A        7.648334    2.291756
    21    2926.063    A        1.084412    3.669220
    22    3168.698    A        1.060372    0.187688
    23    3182.456    A        1.090305    0.266653
    24    3260.683    A        1.117740    0.084992

     -------------------------------
     THERMOCHEMISTRY AT T=  298.15 K
     -------------------------------

 USING IDEAL GAS, RIGID ROTOR, HARMONIC NORMAL MODE APPROXIMATIONS.
 P=  1.01325E+05 PASCAL.
 ALL FREQUENCIES ARE SCALED BY   1.00000
 THE MOMENTS OF INERTIA ARE (IN AMU*BOHR**2)
             79.09630           290.31108           369.40274
 THE ROTATIONAL SYMMETRY NUMBER IS  1.0
 THE ROTATIONAL CONSTANTS ARE (IN GHZ)
     22.79611     6.21088     4.88109
      7 -     24 VIBRATIONAL MODES ARE USED IN THERMOCHEMISTRY.
 THE HARMONIC ZERO POINT ENERGY IS (SCALED BY   1.000)
        0.061652 HARTREE/MOLECULE    13531.140851 CM**-1/MOLECULE 
       38.687512 KCAL/MOL              161.868550 KJ/MOL

               Q               LN Q
 ELEC.     1.00000E+00       0.000000
 TRANS.    1.64832E+07      16.617850
 ROT.      3.29687E+04      10.403313
 VIB.      2.61332E+00       0.960620
 TOT.      1.42015E+12      27.981783

              E         H         G         CV        CP        S
           KJ/MOL    KJ/MOL    KJ/MOL   J/MOL-K   J/MOL-K   J/MOL-K
 ELEC.      0.000     0.000     0.000     0.000     0.000     0.000
 TRANS.     3.718     6.197   -41.195    12.472    20.786   158.954
 ROT.       3.718     3.718   -25.789    12.472    12.472    98.969
 VIB.     165.862   165.862   159.487    32.263    32.263    21.381
 TOTAL    173.299   175.778    92.503    57.206    65.520   279.304
 VIB. THERMAL CORRECTION E(T)-E(0) = H(T)-H(0) =      3993.514 J/MOL

              E         H         G         CV        CP        S
         KCAL/MOL  KCAL/MOL  KCAL/MOL CAL/MOL-K CAL/MOL-K CAL/MOL-K
 ELEC.      0.000     0.000     0.000     0.000     0.000     0.000
 TRANS.     0.889     1.481    -9.846     2.981     4.968    37.991
 ROT.       0.889     0.889    -6.164     2.981     2.981    23.654
 VIB.      39.642    39.642    38.118     7.711     7.711     5.110
 TOTAL     41.419    42.012    22.109    13.673    15.660    66.755
 VIB. THERMAL CORRECTION E(T)-E(0) = H(T)-H(0) =       954.473 CAL/MOL
 ......END OF NORMAL COORDINATE ANALYSIS......
 STEP CPU TIME =     0.00 TOTAL CPU TIME =        737.5 (     12.3 MIN)
 TOTAL WALL CLOCK TIME=        743.7 SECONDS, CPU UTILIZATION IS    99.16%
               1080583  WORDS OF DYNAMIC MEMORY USED
 EXECUTION OF GAMESS TERMINATED NORMALLY Tue Oct  4 21:34:35 2022
 DDI: 263640 bytes (0.3 MB / 0 MWords) used by master data server.

 ----------------------------------------
 CPU timing information for all processes
 ========================================
 0: 734.126 + 3.335 = 737.462
 ----------------------------------------
 ddikick.x: exited gracefully.
----- accounting info -----
Files used on the master node chemcompute-node-2.novalocal were:
-rw-r--r--. 1 chemcomp chemcomp     1029 Oct  4 21:22 /scratch/120815/460772.F05
-rw-rw-r--. 1 chemcomp chemcomp 65536000 Oct  4 21:34 /scratch/120815/460772.F10
-rw-rw-r--. 1 chemcomp chemcomp  4143136 Oct  4 21:34 /scratch/120815/460772.F22
Tue Oct  4 21:34:38 UTC 2022
0.097u 0.036s 12:27.09 0.0%	0+0k 8+208io 0pf+0w
Finishing Up...
Looking for IR data...
Looking for Raman data...
vibramans not found
Looking for thermodynamics data...
Looking for UV-Vis data...
chemcompute.org
{'UTCtimestamp': '2022-10-04T21:34:40.214341', 'cluster': 'jetstream2', 'clusterJobNumber': '120815', 'status': 'COMPLETE', 'nodeList': 'chemcompute-node-2'}
120815
